Siesta Version  : v4.1.5-1-g384057250
Architecture    : unknown
Compiler version: ifort (IFORT) 2021.2.0 20210228
Compiler flags  : ifort -O2 -fPIC -fp-model source
PP flags        : -DFC_HAVE_ABORT -DSIESTA__DIAG_2STAGE -DSIESTA__MRRR
Libraries       : libsiestaLAPACK.a libsiestaBLAS.a
SERIAL version

* Running in serial mode
>> Start of run:   2-OCT-2022  20:20:20

                           ***********************       
                           *  WELCOME TO SIESTA  *       
                           ***********************       

reinit: Reading from C.fdf

reinit: -----------------------------------------------------------------------
reinit: System Name: Carbon
reinit: -----------------------------------------------------------------------
reinit: System Label: C
reinit: -----------------------------------------------------------------------

initatom: Reading input for the pseudopotentials and atomic orbitals ----------
Species number:   1 Atomic number:    6 Label: C
 
Ground state valence configuration:   2s02  2p02
Reading pseudopotential information in formatted form from C.psf

Valence configuration for pseudopotential generation:
2s( 2.00) rc: 1.25
2p( 2.00) rc: 1.25
3d( 0.00) rc: 1.25
4f( 0.00) rc: 1.25
For C, standard SIESTA heuristics set lmxkb to 3
 (one more than the basis l, including polarization orbitals).
Use PS.lmax or PS.KBprojectors blocks to override.

<basis_specs>
===============================================================================
C                    Z=   6    Mass=  12.010        Charge= 0.17977+309
Lmxo=1 Lmxkb= 3    BasisType=split      Semic=F
L=0  Nsemic=0  Cnfigmx=2
          i=1  nzeta=2  polorb=0  (2s)
            splnorm:   0.15000    
               vcte:    0.0000    
               rinn:    0.0000    
               qcoe:    0.0000    
               qyuk:    0.0000    
               qwid:   0.10000E-01
                rcs:    0.0000      0.0000    
            lambdas:    1.0000      1.0000    
L=1  Nsemic=0  Cnfigmx=2
          i=1  nzeta=2  polorb=1  (2p)
            splnorm:   0.15000    
               vcte:    0.0000    
               rinn:    0.0000    
               qcoe:    0.0000    
               qyuk:    0.0000    
               qwid:   0.10000E-01
                rcs:    0.0000      0.0000    
            lambdas:    1.0000      1.0000    
-------------------------------------------------------------------------------
L=0  Nkbl=1  erefs: 0.17977+309
L=1  Nkbl=1  erefs: 0.17977+309
L=2  Nkbl=1  erefs: 0.17977+309
L=3  Nkbl=1  erefs: 0.17977+309
===============================================================================
</basis_specs>

atom: Called for C                     (Z =   6)

read_vps: Pseudopotential generation method:
read_vps: ATM3      Troullier-Martins                       
Valence charge for ps generation:    4.00000

xc_check: Exchange-correlation functional:
xc_check: Ceperley-Alder
V l=0 = -2*Zval/r beyond r=  1.3951
V l=1 = -2*Zval/r beyond r=  1.3777
V l=2 = -2*Zval/r beyond r=  1.3777
V l=3 = -2*Zval/r beyond r=  1.3777
All V_l potentials equal beyond r=  1.2311
This should be close to max(r_c) in ps generation
All pots = -2*Zval/r beyond r=  1.3951

VLOCAL1: 99.0% of the norm of Vloc inside     28.641 Ry
VLOCAL1: 99.9% of the norm of Vloc inside     65.273 Ry
atom: Maximum radius for 4*pi*r*r*local-pseudopot. charge    1.48507
atom: Maximum radius for r*vlocal+2*Zval:    1.27815
GHOST: No ghost state for L =  0
GHOST: No ghost state for L =  1
GHOST: No ghost state for L =  2
GHOST: No ghost state for L =  3

KBgen: Kleinman-Bylander projectors: 
   l= 0   rc=  1.600766   el= -1.001946   Ekb=  7.816946   kbcos=  0.279978
   l= 1   rc=  1.620907   el= -0.398597   Ekb= -4.829535   kbcos= -0.287433
   l= 2   rc=  1.836783   el=  0.002326   Ekb= -1.327964   kbcos= -0.005365
   l= 3   rc=  1.979871   el=  0.003420   Ekb= -0.522285   kbcos= -0.000569

KBgen: Total number of Kleinman-Bylander projectors:   16
atom: -------------------------------------------------------------------------

atom: SANKEY-TYPE ORBITALS:
atom: Selected multiple-zeta basis: split     

SPLIT: Orbitals with angular momentum L= 0

SPLIT: Basis orbitals for state 2s

SPLIT: PAO cut-off radius determined from an
SPLIT: energy shift=  0.003675 Ry

   izeta = 1
                 lambda =    1.000000
                     rc =    5.120028
                 energy =   -0.998772
                kinetic =    0.858242
    potential(screened) =   -1.857014
       potential(ionic) =   -5.418547

   izeta = 2
                 rmatch =    3.518811
              splitnorm =    0.150000
                 energy =   -0.870182
                kinetic =    1.330004
    potential(screened) =   -2.200186
       potential(ionic) =   -6.017108

SPLIT: Orbitals with angular momentum L= 1

SPLIT: Basis orbitals for state 2p

SPLIT: PAO cut-off radius determined from an
SPLIT: energy shift=  0.003675 Ry

   izeta = 1
                 lambda =    1.000000
                     rc =    6.253707
                 energy =   -0.395142
                kinetic =    2.439321
    potential(screened) =   -2.834463
       potential(ionic) =   -6.264070

   izeta = 2
                 rmatch =    3.745781
              splitnorm =    0.150000
                 energy =   -0.266467
                kinetic =    3.655359
    potential(screened) =   -3.921826
       potential(ionic) =   -7.757575

POLgen: Perturbative polarization orbital with L=  2

POLgen: Polarization orbital for state 2p

   izeta = 1
                     rc =    6.253707
                 energy =    1.009535
                kinetic =    2.120051
    potential(screened) =   -1.110516
       potential(ionic) =   -3.842863
atom: Total number of Sankey-type orbitals: 13

atm_pop: Valence configuration (for local Pseudopot. screening):
 2s( 2.00)                                                            
 2p( 2.00)                                                            
Vna: chval, zval:    4.00000   4.00000

Vna:  Cut-off radius for the neutral-atom potential:   6.253707

atom: _________________________________________________________________________

prinput: Basis input ----------------------------------------------------------

PAO.BasisType split     

%block ChemicalSpeciesLabel
    1    6 C                       # Species index, atomic number, species label
%endblock ChemicalSpeciesLabel

%block PAO.Basis                 # Define Basis set
C                     2                    # Species label, number of l-shells
 n=2   0   2                         # n, l, Nzeta 
   5.120      3.519   
   1.000      1.000   
 n=2   1   2 P   1                   # n, l, Nzeta, Polarization, NzetaPol
   6.254      3.746   
   1.000      1.000   
%endblock PAO.Basis

prinput: ----------------------------------------------------------------------

coor:   Atomic-coordinates input format  =     Cartesian coordinates
coor:                                          (in Angstroms)

siesta: Atomic coordinates (Bohr) and species
siesta:      0.50838   0.00000   0.00000  1        1
siesta:      3.30612   0.00000   0.00000  1        2

siesta: System type = molecule  

initatomlists: Number of atoms, orbitals, and projectors:      2    26    32

siesta: ******************** Simulation parameters ****************************
siesta:
siesta: The following are some of the parameters of the simulation.
siesta: A complete list of the parameters used, including default values,
siesta: can be found in file out.fdf
siesta:
redata: Spin configuration                          = none
redata: Number of spin components                   = 1
redata: Time-Reversal Symmetry                      = T
redata: Spin spiral                                 = F
redata: Long output                                 =   F
redata: Number of Atomic Species                    =        1
redata: Charge density info will appear in .RHO file
redata: Write Mulliken Pop.                         = NO
redata: Matel table size (NRTAB)                    =     1024
redata: Mesh Cutoff                                 =   200.0000 Ry
redata: Net charge of the system                    =     0.0000 |e|
redata: Min. number of SCF Iter                     =        0
redata: Max. number of SCF Iter                     =      200
redata: SCF convergence failure will abort job
redata: SCF mix quantity                            = Hamiltonian
redata: Mix DM or H after convergence               =   F
redata: Recompute H after scf cycle                 =   F
redata: Mix DM in first SCF step                    =   T
redata: Write Pulay info on disk                    =   F
redata: New DM Occupancy tolerance                  = 0.000000000001
redata: No kicks to SCF
redata: DM Mixing Weight for Kicks                  =     0.5000
redata: Require Harris convergence for SCF          =   F
redata: Harris energy tolerance for SCF             =     0.000100 eV
redata: Require DM convergence for SCF              =   T
redata: DM tolerance for SCF                        =     0.000100
redata: Require EDM convergence for SCF             =   F
redata: EDM tolerance for SCF                       =     0.001000 eV
redata: Require H convergence for SCF               =   T
redata: Hamiltonian tolerance for SCF               =     0.001000 eV
redata: Require (free) Energy convergence for SCF   =   F
redata: (free) Energy tolerance for SCF             =     0.000100 eV
redata: Using Saved Data (generic)                  =   F
redata: Use continuation files for DM               =   F
redata: Neglect nonoverlap interactions             =   F
redata: Method of Calculation                       = Diagonalization
redata: Electronic Temperature                      =   299.9978 K
redata: Fix the spin of the system                  =   F
redata: Dynamics option                             = CG coord. optimization
redata: Variable cell                               =   F
redata: Use continuation files for CG               =   F
redata: Max atomic displ per move                   =     0.0529 Ang
redata: Maximum number of optimization moves        =      150
redata: Force tolerance                             =     0.0400 eV/Ang
mix.SCF: Pulay mixing                            = Pulay
mix.SCF:    Variant                              = stable
mix.SCF:    History steps                        = 5
mix.SCF:    Linear mixing weight                 =     0.100000
mix.SCF:    Mixing weight                        =     0.100000
mix.SCF:    SVD condition                        = 0.1000E-07
redata: ***********************************************************************

%block SCF.Mixers
  Pulay
%endblock SCF.Mixers

%block SCF.Mixer.Pulay
  # Mixing method
  method pulay
  variant stable

  # Mixing options
  weight 0.1000
  weight.linear 0.1000
  history 5
%endblock SCF.Mixer.Pulay
 
DM_history_depth set to one: no extrapolation allowed by default for geometry relaxation
Size of DM history Fstack: 1
Total number of electrons:     8.000000
Total ionic charge:     8.000000
 Kpoints in:            1 . Kpoints trimmed:            1

siesta: k-grid: Number of k-points =     1
siesta: k-grid: Cutoff (effective) =     8.500 Ang
siesta: k-grid: Supercell and displacements
siesta: k-grid:    1   0   0      0.000
siesta: k-grid:    0   1   0      0.000
siesta: k-grid:    0   0   1      0.000
 
diag: Algorithm                                     = D&C
diag: Used triangular part                          = Lower
diag: Absolute tolerance                            =  0.100E-15
diag: Orthogonalization factor                      =  0.100E-05
diag: Memory factor                                 =  1.0000
 
siesta: Constraints using custom constr routine
 
ts: **************************************************************
ts: Save H and S matrices                           =    F
ts: Save DM and EDM matrices                        =    F
ts: Only save the overlap matrix S                  =    F
ts: **************************************************************
 
************************ Begin: TS CHECKS AND WARNINGS ************************
************************ End: TS CHECKS AND WARNINGS **************************


                     ====================================
                        Begin CG opt. move =      0
                     ====================================

outcell: Unit cell vectors (Ang):
       17.000000    0.000000    0.000000
        0.000000   17.000000    0.000000
        0.000000    0.000000   17.000000

outcell: Cell vector modules (Ang)   :   17.000000   17.000000   17.000000
outcell: Cell angles (23,13,12) (deg):     90.0000     90.0000     90.0000
outcell: Cell volume (Ang**3)        :   4913.0000
<dSpData1D:S at geom step 0
  <sparsity:sparsity for geom step 0
    nrows_g=26 nrows=26 sparsity=1.0000 nnzs=676, refcount: 7>
  <dData1D:(new from dSpData1D) n=676, refcount: 1>
refcount: 1>
new_DM -- step:     1
Initializing Density Matrix...
DM filled with atomic data:
<dSpData2D:DM initialized from atoms
  <sparsity:sparsity for geom step 0
    nrows_g=26 nrows=26 sparsity=1.0000 nnzs=676, refcount: 8>
  <dData2D:DM n=676 m=1, refcount: 1>
refcount: 1>
No. of atoms with KB's overlaping orbs in proc 0. Max # of overlaps:       2      26
New grid distribution:   1
           1       1:   75    1:   75    1:   75

InitMesh: MESH =   150 x   150 x   150 =     3375000
InitMesh: (bp) =    75 x    75 x    75 =      421875
InitMesh: Mesh cutoff (required, used) =   200.000   215.172 Ry
ExtMesh (bp) on 0 =   135 x   135 x   135 =     2460375
PhiOnMesh: Number of (b)points on node 0 =               421875
PhiOnMesh: nlist on node 0 =               265066

stepf: Fermi-Dirac step function

siesta: Program's energy decomposition (eV):
siesta: Ebs     =       -83.969003
siesta: Eions   =       632.268963
siesta: Ena     =       222.268563
siesta: Ekin    =       184.721678
siesta: Enl     =         6.731131
siesta: Eso     =         0.000000
siesta: Edftu   =         0.000000
siesta: DEna    =        -0.081564
siesta: DUscf   =         0.512721
siesta: DUext   =         0.000000
siesta: Exc     =       -80.810433
siesta: eta*DQ  =         0.000000
siesta: Emadel  =         0.000000
siesta: Emeta   =         0.000000
siesta: Emolmec =         0.000000
siesta: Ekinion =         0.000000
siesta: Eharris =      -300.709296
siesta: Etot    =      -298.926868
siesta: FreeEng =      -298.988974

        iscf     Eharris(eV)        E_KS(eV)     FreeEng(eV)     dDmax    Ef(eV) dHmax(eV)
   scf:    1     -300.709296     -298.926868     -298.988974  1.154847 -7.938803  1.119609
timer: Routine,Calls,Time,% = IterSCF        1       1.746  45.28
   scf:    2     -298.829554     -299.103754     -299.202073  0.313708 -7.863344  0.896037
   scf:    3     -298.991764     -299.124707     -299.208598  0.179546 -7.792590  0.693204
   scf:    4     -299.123504     -299.161935     -299.257029  0.133116 -7.532629  0.071985
   scf:    5     -299.167463     -299.164845     -299.259391  0.007752 -7.528563  0.059024
   scf:    6     -299.168785     -299.166900     -299.260907  0.011637 -7.534798  0.065850
   scf:    7     -299.172495     -299.171516     -299.262966  0.028484 -7.497280  0.038181
   scf:    8     -299.170398     -299.171052     -299.263200  0.006712 -7.506523  0.004726
   scf:    9     -299.171043     -299.171047     -299.263201  0.000131 -7.508607  0.000151
   scf:   10     -299.171055     -299.171051     -299.263201  0.000043 -7.508586  0.000010

SCF Convergence by DM+H criterion
max |DM_out - DM_in|         :     0.0000434680
max |H_out - H_in|      (eV) :     0.0000097146
SCF cycle converged after 10 iterations

Using DM_out to compute the final energy and forces
No. of atoms with KB's overlaping orbs in proc 0. Max # of overlaps:       2      26

siesta: E_KS(eV) =             -299.1711

siesta: E_KS - E_eggbox =      -299.1711

siesta: Atomic forces (eV/Ang):
----------------------------------------
   Tot   -0.010417    0.000000   -0.000000
----------------------------------------
   Max    5.821738
   Res    3.358176    sqrt( Sum f_i^2 / 3N )
----------------------------------------
   Max    9.732945    constrained

Stress tensor Voigt[x,y,z,yz,xz,xy] (kbar):        2.81       -0.00       -0.00        0.00       -0.00        0.00
(Free)E + p*V (eV/cell)     -302.1370
Target enthalpy (eV/cell)     -299.2632

                     ====================================
                        Begin CG opt. move =      1
                     ====================================

outcell: Unit cell vectors (Ang):
       17.000000    0.000000    0.000000
        0.000000   17.000000    0.000000
        0.000000    0.000000   17.000000

outcell: Cell vector modules (Ang)   :   17.000000   17.000000   17.000000
outcell: Cell angles (23,13,12) (deg):     90.0000     90.0000     90.0000
outcell: Cell volume (Ang**3)        :   4913.0000
<dSpData1D:S at geom step 1
  <sparsity:sparsity for geom step 1
    nrows_g=26 nrows=26 sparsity=1.0000 nnzs=676, refcount: 7>
  <dData1D:(new from dSpData1D) n=676, refcount: 1>
refcount: 1>
new_DM -- step:     2
Re-using DM from previous geometries...
Number of DMs in history: 1
 DM extrapolation coefficients: 
1   1.00000
New DM after history re-use:
<dSpData2D:SpM extrapolated using coords
  <sparsity:sparsity for geom step 1
    nrows_g=26 nrows=26 sparsity=1.0000 nnzs=676, refcount: 9>
  <dData2D:(temp array for extrapolation) n=676 m=1, refcount: 1>
refcount: 1>
Note: For starting DM, Qtot, Tr[D*S] =          8.00000000          8.11431512
No. of atoms with KB's overlaping orbs in proc 0. Max # of overlaps:       2      26
New grid distribution:   1
           1       1:   75    1:   75    1:   75

InitMesh: MESH =   150 x   150 x   150 =     3375000
InitMesh: (bp) =    75 x    75 x    75 =      421875
InitMesh: Mesh cutoff (required, used) =   200.000   215.172 Ry
ExtMesh (bp) on 0 =   135 x   135 x   135 =     2460375
PhiOnMesh: Number of (b)points on node 0 =               421875
PhiOnMesh: nlist on node 0 =               265129

        iscf     Eharris(eV)        E_KS(eV)     FreeEng(eV)     dDmax    Ef(eV) dHmax(eV)
   scf:    1     -298.380377     -299.294055     -299.307233  0.417335 -7.808837  0.997260
   scf:    2     -293.194997     -297.879363     -297.951040  0.756510 -7.132754  2.756133
   scf:    3     -299.082876     -298.512347     -298.593843  0.066750 -7.673463  1.584743
   scf:    4     -297.633070     -298.088895     -298.160572  0.027958 -7.371861  2.325715
   scf:    5     -297.303123     -299.233414     -299.235334  0.772304 -7.653200  1.109562
   scf:    6     -299.230915     -299.232161     -299.233996  0.000252 -7.652491  1.113516
   scf:    7     -299.168825     -299.200774     -299.201385  0.006606 -7.661321  1.218629
   scf:    8     -299.274438     -299.237988     -299.240350  0.007807 -7.636095  1.102959
   scf:    9     -299.642328     -299.568421     -299.641887  0.244649 -7.590724  0.155588
   scf:   10     -298.547795     -299.196772     -299.197197  0.250906 -7.651280  1.214424
   scf:   11     -299.212201     -299.204500     -299.205097  0.001250 -7.653034  1.190437
   scf:   12     -294.495161     -298.332490     -298.405241  0.792664 -7.621046  1.732610
