Siesta Version  : v4.1.5-1-g384057250
Architecture    : unknown
Compiler version: ifort (IFORT) 2021.2.0 20210228
Compiler flags  : ifort -O2 -fPIC -fp-model source
PP flags        : -DFC_HAVE_ABORT -DSIESTA__DIAG_2STAGE -DSIESTA__MRRR
Libraries       : libsiestaLAPACK.a libsiestaBLAS.a
SERIAL version

* Running in serial mode
>> Start of run:   2-OCT-2022  20:16:29

                           ***********************       
                           *  WELCOME TO SIESTA  *       
                           ***********************       

reinit: Reading from C.fdf

reinit: -----------------------------------------------------------------------
reinit: System Name: Carbon
reinit: -----------------------------------------------------------------------
reinit: System Label: C
reinit: -----------------------------------------------------------------------

initatom: Reading input for the pseudopotentials and atomic orbitals ----------
Species number:   1 Atomic number:    6 Label: C
 
Ground state valence configuration:   2s02  2p02
Reading pseudopotential information in formatted form from C.psf

Valence configuration for pseudopotential generation:
2s( 2.00) rc: 1.25
2p( 2.00) rc: 1.25
3d( 0.00) rc: 1.25
4f( 0.00) rc: 1.25
For C, standard SIESTA heuristics set lmxkb to 3
 (one more than the basis l, including polarization orbitals).
Use PS.lmax or PS.KBprojectors blocks to override.

<basis_specs>
===============================================================================
C                    Z=   6    Mass=  12.010        Charge= 0.17977+309
Lmxo=1 Lmxkb= 3    BasisType=split      Semic=F
L=0  Nsemic=0  Cnfigmx=2
          i=1  nzeta=2  polorb=0  (2s)
            splnorm:   0.15000    
               vcte:    0.0000    
               rinn:    0.0000    
               qcoe:    0.0000    
               qyuk:    0.0000    
               qwid:   0.10000E-01
                rcs:    0.0000      0.0000    
            lambdas:    1.0000      1.0000    
L=1  Nsemic=0  Cnfigmx=2
          i=1  nzeta=2  polorb=1  (2p)
            splnorm:   0.15000    
               vcte:    0.0000    
               rinn:    0.0000    
               qcoe:    0.0000    
               qyuk:    0.0000    
               qwid:   0.10000E-01
                rcs:    0.0000      0.0000    
            lambdas:    1.0000      1.0000    
-------------------------------------------------------------------------------
L=0  Nkbl=1  erefs: 0.17977+309
L=1  Nkbl=1  erefs: 0.17977+309
L=2  Nkbl=1  erefs: 0.17977+309
L=3  Nkbl=1  erefs: 0.17977+309
===============================================================================
</basis_specs>

atom: Called for C                     (Z =   6)

read_vps: Pseudopotential generation method:
read_vps: ATM3      Troullier-Martins                       
Valence charge for ps generation:    4.00000

xc_check: Exchange-correlation functional:
xc_check: Ceperley-Alder
V l=0 = -2*Zval/r beyond r=  1.3951
V l=1 = -2*Zval/r beyond r=  1.3777
V l=2 = -2*Zval/r beyond r=  1.3777
V l=3 = -2*Zval/r beyond r=  1.3777
All V_l potentials equal beyond r=  1.2311
This should be close to max(r_c) in ps generation
All pots = -2*Zval/r beyond r=  1.3951

VLOCAL1: 99.0% of the norm of Vloc inside     28.641 Ry
VLOCAL1: 99.9% of the norm of Vloc inside     65.273 Ry
atom: Maximum radius for 4*pi*r*r*local-pseudopot. charge    1.48507
atom: Maximum radius for r*vlocal+2*Zval:    1.27815
GHOST: No ghost state for L =  0
GHOST: No ghost state for L =  1
GHOST: No ghost state for L =  2
GHOST: No ghost state for L =  3

KBgen: Kleinman-Bylander projectors: 
   l= 0   rc=  1.600766   el= -1.001946   Ekb=  7.816946   kbcos=  0.279978
   l= 1   rc=  1.620907   el= -0.398597   Ekb= -4.829535   kbcos= -0.287433
   l= 2   rc=  1.836783   el=  0.002326   Ekb= -1.327964   kbcos= -0.005365
   l= 3   rc=  1.979871   el=  0.003420   Ekb= -0.522285   kbcos= -0.000569

KBgen: Total number of Kleinman-Bylander projectors:   16
atom: -------------------------------------------------------------------------

atom: SANKEY-TYPE ORBITALS:
atom: Selected multiple-zeta basis: split     

SPLIT: Orbitals with angular momentum L= 0

SPLIT: Basis orbitals for state 2s

SPLIT: PAO cut-off radius determined from an
SPLIT: energy shift=  0.003675 Ry

   izeta = 1
                 lambda =    1.000000
                     rc =    5.120028
                 energy =   -0.998772
                kinetic =    0.858242
    potential(screened) =   -1.857014
       potential(ionic) =   -5.418547

   izeta = 2
                 rmatch =    3.518811
              splitnorm =    0.150000
                 energy =   -0.870182
                kinetic =    1.330004
    potential(screened) =   -2.200186
       potential(ionic) =   -6.017108

SPLIT: Orbitals with angular momentum L= 1

SPLIT: Basis orbitals for state 2p

SPLIT: PAO cut-off radius determined from an
SPLIT: energy shift=  0.003675 Ry

   izeta = 1
                 lambda =    1.000000
                     rc =    6.253707
                 energy =   -0.395142
                kinetic =    2.439321
    potential(screened) =   -2.834463
       potential(ionic) =   -6.264070

   izeta = 2
                 rmatch =    3.745781
              splitnorm =    0.150000
                 energy =   -0.266467
                kinetic =    3.655359
    potential(screened) =   -3.921826
       potential(ionic) =   -7.757575

POLgen: Perturbative polarization orbital with L=  2

POLgen: Polarization orbital for state 2p

   izeta = 1
                     rc =    6.253707
                 energy =    1.009535
                kinetic =    2.120051
    potential(screened) =   -1.110516
       potential(ionic) =   -3.842863
atom: Total number of Sankey-type orbitals: 13

atm_pop: Valence configuration (for local Pseudopot. screening):
 2s( 2.00)                                                            
 2p( 2.00)                                                            
Vna: chval, zval:    4.00000   4.00000

Vna:  Cut-off radius for the neutral-atom potential:   6.253707

atom: _________________________________________________________________________

prinput: Basis input ----------------------------------------------------------

PAO.BasisType split     

%block ChemicalSpeciesLabel
    1    6 C                       # Species index, atomic number, species label
%endblock ChemicalSpeciesLabel

%block PAO.Basis                 # Define Basis set
C                     2                    # Species label, number of l-shells
 n=2   0   2                         # n, l, Nzeta 
   5.120      3.519   
   1.000      1.000   
 n=2   1   2 P   1                   # n, l, Nzeta, Polarization, NzetaPol
   6.254      3.746   
   1.000      1.000   
%endblock PAO.Basis

prinput: ----------------------------------------------------------------------

coor:   Atomic-coordinates input format  =     Cartesian coordinates
coor:                                          (in Angstroms)

siesta: Atomic coordinates (Bohr) and species
siesta:      0.33285   0.00000   0.00000  1        1
siesta:      3.48136   0.00000   0.00000  1        2

siesta: System type = molecule  

initatomlists: Number of atoms, orbitals, and projectors:      2    26    32

siesta: ******************** Simulation parameters ****************************
siesta:
siesta: The following are some of the parameters of the simulation.
siesta: A complete list of the parameters used, including default values,
siesta: can be found in file out.fdf
siesta:
redata: Spin configuration                          = none
redata: Number of spin components                   = 1
redata: Time-Reversal Symmetry                      = T
redata: Spin spiral                                 = F
redata: Long output                                 =   F
redata: Number of Atomic Species                    =        1
redata: Charge density info will appear in .RHO file
redata: Write Mulliken Pop.                         = NO
redata: Matel table size (NRTAB)                    =     1024
redata: Mesh Cutoff                                 =   200.0000 Ry
redata: Net charge of the system                    =     0.0000 |e|
redata: Min. number of SCF Iter                     =        0
redata: Max. number of SCF Iter                     =      200
redata: SCF convergence failure will abort job
redata: SCF mix quantity                            = Hamiltonian
redata: Mix DM or H after convergence               =   F
redata: Recompute H after scf cycle                 =   F
redata: Mix DM in first SCF step                    =   T
redata: Write Pulay info on disk                    =   F
redata: New DM Occupancy tolerance                  = 0.000000000001
redata: No kicks to SCF
redata: DM Mixing Weight for Kicks                  =     0.5000
redata: Require Harris convergence for SCF          =   F
redata: Harris energy tolerance for SCF             =     0.000100 eV
redata: Require DM convergence for SCF              =   T
redata: DM tolerance for SCF                        =     0.000100
redata: Require EDM convergence for SCF             =   F
redata: EDM tolerance for SCF                       =     0.001000 eV
redata: Require H convergence for SCF               =   T
redata: Hamiltonian tolerance for SCF               =     0.001000 eV
redata: Require (free) Energy convergence for SCF   =   F
redata: (free) Energy tolerance for SCF             =     0.000100 eV
redata: Using Saved Data (generic)                  =   F
redata: Use continuation files for DM               =   F
redata: Neglect nonoverlap interactions             =   F
redata: Method of Calculation                       = Diagonalization
redata: Electronic Temperature                      =   299.9978 K
redata: Fix the spin of the system                  =   F
redata: Dynamics option                             = CG coord. optimization
redata: Variable cell                               =   F
redata: Use continuation files for CG               =   F
redata: Max atomic displ per move                   =     0.0529 Ang
redata: Maximum number of optimization moves        =      150
redata: Force tolerance                             =     0.0400 eV/Ang
mix.SCF: Pulay mixing                            = Pulay
mix.SCF:    Variant                              = stable
mix.SCF:    History steps                        = 5
mix.SCF:    Linear mixing weight                 =     0.100000
mix.SCF:    Mixing weight                        =     0.100000
mix.SCF:    SVD condition                        = 0.1000E-07
redata: ***********************************************************************

%block SCF.Mixers
  Pulay
%endblock SCF.Mixers

%block SCF.Mixer.Pulay
  # Mixing method
  method pulay
  variant stable

  # Mixing options
  weight 0.1000
  weight.linear 0.1000
  history 5
%endblock SCF.Mixer.Pulay
 
DM_history_depth set to one: no extrapolation allowed by default for geometry relaxation
Size of DM history Fstack: 1
Total number of electrons:     8.000000
Total ionic charge:     8.000000
 Kpoints in:            1 . Kpoints trimmed:            1

siesta: k-grid: Number of k-points =     1
siesta: k-grid: Cutoff (effective) =     8.500 Ang
siesta: k-grid: Supercell and displacements
siesta: k-grid:    1   0   0      0.000
siesta: k-grid:    0   1   0      0.000
siesta: k-grid:    0   0   1      0.000
 
diag: Algorithm                                     = D&C
diag: Used triangular part                          = Lower
diag: Absolute tolerance                            =  0.100E-15
diag: Orthogonalization factor                      =  0.100E-05
diag: Memory factor                                 =  1.0000
 
siesta: Constraints using custom constr routine
 
ts: **************************************************************
ts: Save H and S matrices                           =    F
ts: Save DM and EDM matrices                        =    F
ts: Only save the overlap matrix S                  =    F
ts: **************************************************************
 
************************ Begin: TS CHECKS AND WARNINGS ************************
************************ End: TS CHECKS AND WARNINGS **************************


                     ====================================
                        Begin CG opt. move =      0
                     ====================================

outcell: Unit cell vectors (Ang):
       17.000000    0.000000    0.000000
        0.000000   17.000000    0.000000
        0.000000    0.000000   17.000000

outcell: Cell vector modules (Ang)   :   17.000000   17.000000   17.000000
outcell: Cell angles (23,13,12) (deg):     90.0000     90.0000     90.0000
outcell: Cell volume (Ang**3)        :   4913.0000
<dSpData1D:S at geom step 0
  <sparsity:sparsity for geom step 0
    nrows_g=26 nrows=26 sparsity=1.0000 nnzs=676, refcount: 7>
  <dData1D:(new from dSpData1D) n=676, refcount: 1>
refcount: 1>
new_DM -- step:     1
Initializing Density Matrix...
DM filled with atomic data:
<dSpData2D:DM initialized from atoms
  <sparsity:sparsity for geom step 0
    nrows_g=26 nrows=26 sparsity=1.0000 nnzs=676, refcount: 8>
  <dData2D:DM n=676 m=1, refcount: 1>
refcount: 1>
No. of atoms with KB's overlaping orbs in proc 0. Max # of overlaps:       2      26
New grid distribution:   1
           1       1:   75    1:   75    1:   75

InitMesh: MESH =   150 x   150 x   150 =     3375000
InitMesh: (bp) =    75 x    75 x    75 =      421875
InitMesh: Mesh cutoff (required, used) =   200.000   215.172 Ry
ExtMesh (bp) on 0 =   135 x   135 x   135 =     2460375
PhiOnMesh: Number of (b)points on node 0 =               421875
PhiOnMesh: nlist on node 0 =               265018

stepf: Fermi-Dirac step function

siesta: Program's energy decomposition (eV):
siesta: Ebs     =       -84.351693
siesta: Eions   =       632.268963
siesta: Ena     =       223.643282
siesta: Ekin    =       180.198958
siesta: Enl     =         9.727071
siesta: Eso     =         0.000000
siesta: Edftu   =         0.000000
siesta: DEna    =        -0.226119
siesta: DUscf   =         1.081311
siesta: DUext   =         0.000000
siesta: Exc     =       -79.929319
siesta: eta*DQ  =         0.000000
siesta: Emadel  =         0.000000
siesta: Emeta   =         0.000000
siesta: Emolmec =         0.000000
siesta: Ekinion =         0.000000
siesta: Eharris =      -299.772760
siesta: Etot    =      -297.773777
siesta: FreeEng =      -297.845454

        iscf     Eharris(eV)        E_KS(eV)     FreeEng(eV)     dDmax    Ef(eV) dHmax(eV)
   scf:    1     -299.772760     -297.773777     -297.845454  0.799721 -7.078589  0.774318
timer: Routine,Calls,Time,% = IterSCF        1       1.607  42.38
   scf:    2     -297.832726     -297.803648     -297.875340  0.013750 -7.095461  0.646628
   scf:    3     -292.837363     -296.535973     -296.539809  0.616777 -7.035559  1.970284
   scf:    4     -295.758554     -296.156481     -296.156485  0.018267 -6.916445  2.512469
   scf:    5     -296.288691     -297.774907     -297.846585  0.620459 -7.067345  0.783063
   scf:    6     -297.752739     -297.763934     -297.835613  0.016669 -7.009297  0.878347
   scf:    7     -297.772888     -297.768418     -297.840099  0.002438 -7.004711  0.866278
   scf:    8     -297.793145     -297.780839     -297.852535  0.006587 -6.997401  0.828132
   scf:    9     -293.178801     -296.660199     -296.665251  0.590063 -6.999206  1.717847
   scf:   10     -296.668198     -297.837293     -297.912639  0.597971 -7.021568  0.623174
   scf:   11     -297.991434     -297.923829     -298.011406  0.044884 -7.037418  0.387104
   scf:   12     -297.968043     -297.981864     -298.079904  0.103146 -7.041246  0.080423
   scf:   13     -297.964899     -297.975177     -298.073817  0.023854 -7.040290  0.115852
   scf:   14     -297.940689     -297.960018     -298.058681  0.025745 -7.039438  0.177782
   scf:   15     -297.769904     -297.933797     -298.022683  0.146312 -7.035506  0.347307
   scf:   16     -297.915047     -297.924615     -298.012209  0.007480 -7.036418  0.377485
   scf:   17     -297.965781     -297.946482     -298.037039  0.017550 -7.055912  0.292830
   scf:   18     -297.701894     -297.841163     -297.916911  0.061211 -7.003039  0.606292
   scf:   19     -296.740917     -297.696483     -297.782536  0.353621 -7.083381  0.743917
   scf:   20     -297.149537     -297.840071     -297.915708  0.351830 -7.029157  0.610373
   scf:   21     -297.813952     -297.827133     -297.900988  0.002865 -7.027157  0.646349
   scf:   22     -297.948280     -297.891888     -297.974827  0.025567 -7.058085  0.463974
   scf:   23     -297.761262     -297.830380     -297.904520  0.025357 -7.042845  0.629307
   scf:   24     -297.805776     -297.818176     -297.890980  0.002472 -7.034446  0.671841
   scf:   25     -294.888472     -297.168952     -297.218693  0.506057 -7.065057  1.271948
   scf:   26     -297.306205     -297.915043     -298.001314  0.466127 -7.048967  0.406662
   scf:   27     -297.948509     -297.932425     -298.021106  0.013210 -7.054931  0.350511
   scf:   28     -297.976528     -297.956433     -298.048598  0.023339 -7.049126  0.259547
   scf:   29     -297.990996     -297.978724     -298.074809  0.038393 -7.041709  0.119951
   scf:   30     -297.946385     -297.965007     -298.058543  0.027334 -7.041791  0.221270
   scf:   31     -297.983872     -297.975621     -298.070919  0.019402 -7.076379  0.135647
   scf:   32     -297.818919     -297.939629     -298.037837  0.116008 -7.087029  0.282253
   scf:   33     -297.963459     -297.981348     -298.078064  0.097337 -7.073934  0.069012
   scf:   34     -297.981297     -297.982580     -298.080356  0.019627 -7.079643  0.004949
   scf:   35     -297.982630     -297.982605     -298.080363  0.000488 -7.079758  0.004575
   scf:   36     -297.982781     -297.982707     -298.080369  0.002266 -7.078665  0.003230
   scf:   37     -297.982551     -297.982637     -298.080370  0.001546 -7.079628  0.002839
   scf:   38     -297.982709     -297.982675     -298.080374  0.000807 -7.079465  0.000350
   scf:   39     -297.982673     -297.982674     -298.080374  0.000026 -7.079625  0.000263

SCF Convergence by DM+H criterion
max |DM_out - DM_in|         :     0.0000260361
max |H_out - H_in|      (eV) :     0.0002631351
SCF cycle converged after 39 iterations

Using DM_out to compute the final energy and forces
No. of atoms with KB's overlaping orbs in proc 0. Max # of overlaps:       2      26

siesta: E_KS(eV) =             -297.9827

siesta: E_KS - E_eggbox =      -297.9827

siesta: Atomic forces (eV/Ang):
----------------------------------------
   Tot    0.016002   -0.000000   -0.000000
----------------------------------------
   Max    6.500142
   Res    3.748242    sqrt( Sum f_i^2 / 3N )
----------------------------------------
   Max    9.712633    constrained

Stress tensor Voigt[x,y,z,yz,xz,xy] (kbar):        3.53        0.00        0.00       -0.00        0.00        0.00
(Free)E + p*V (eV/cell)     -301.6906
Target enthalpy (eV/cell)     -298.0804

                     ====================================
                        Begin CG opt. move =      1
                     ====================================

outcell: Unit cell vectors (Ang):
       17.000000    0.000000    0.000000
        0.000000   17.000000    0.000000
        0.000000    0.000000   17.000000

outcell: Cell vector modules (Ang)   :   17.000000   17.000000   17.000000
outcell: Cell angles (23,13,12) (deg):     90.0000     90.0000     90.0000
outcell: Cell volume (Ang**3)        :   4913.0000
<dSpData1D:S at geom step 1
  <sparsity:sparsity for geom step 1
    nrows_g=26 nrows=26 sparsity=1.0000 nnzs=676, refcount: 7>
  <dData1D:(new from dSpData1D) n=676, refcount: 1>
refcount: 1>
new_DM -- step:     2
Re-using DM from previous geometries...
Number of DMs in history: 1
 DM extrapolation coefficients: 
1   1.00000
New DM after history re-use:
<dSpData2D:SpM extrapolated using coords
  <sparsity:sparsity for geom step 1
    nrows_g=26 nrows=26 sparsity=1.0000 nnzs=676, refcount: 9>
  <dData2D:(temp array for extrapolation) n=676 m=1, refcount: 1>
refcount: 1>
Note: For starting DM, Qtot, Tr[D*S] =          8.00000000          8.08464315
No. of atoms with KB's overlaping orbs in proc 0. Max # of overlaps:       2      26
New grid distribution:   1
           1       1:   75    1:   75    1:   75

InitMesh: MESH =   150 x   150 x   150 =     3375000
InitMesh: (bp) =    75 x    75 x    75 =      421875
InitMesh: Mesh cutoff (required, used) =   200.000   215.172 Ry
ExtMesh (bp) on 0 =   135 x   135 x   135 =     2460375
PhiOnMesh: Number of (b)points on node 0 =               421875
PhiOnMesh: nlist on node 0 =               265480

        iscf     Eharris(eV)        E_KS(eV)     FreeEng(eV)     dDmax    Ef(eV) dHmax(eV)
   scf:    1     -297.146368     -298.131936     -298.200745  0.376446 -7.292031  0.817870
   scf:    2     -295.476883     -297.741452     -297.813129  0.425240 -6.964509  1.987317
   scf:    3     -298.401564     -298.087560     -298.159394  0.088615 -7.219162  1.083669
   scf:    4     -298.007867     -298.048078     -298.119761  0.013139 -7.182646  1.216639
   scf:    5     -294.103475     -297.396626     -297.398081  0.643658 -7.191662  1.677457
   scf:    6     -297.293763     -297.345505     -297.346040  0.004972 -7.198300  1.777223
   scf:    7     -297.233267     -297.289745     -297.289933  0.004173 -7.191773  1.886585
   scf:    8     -297.182651     -297.236480     -297.236546  0.003947 -7.195381  1.985923
   scf:    9     -296.267803     -298.145025     -298.219731  0.680026 -7.177010  0.906402
   scf:   10     -297.755758     -298.356450     -298.444270  0.374920 -7.206346  0.466149
   scf:   11     -298.384650     -298.370787     -298.459840  0.009473 -7.210281  0.437888
   scf:   12     -298.301117     -298.337152     -298.423371  0.021388 -7.206815  0.508254
   scf:   13     -297.720789     -298.064666     -298.127737  0.120209 -7.209986  0.904030
   scf:   14     -297.878439     -298.392758     -298.487563  0.396351 -7.207372  0.423217
   scf:   15     -298.382589     -298.459877     -298.556922  0.162416 -7.216804  0.134144
   scf:   16     -298.433271     -298.447748     -298.543579  0.021040 -7.221050  0.204666
   scf:   17     -298.377738     -298.416129     -298.509048  0.036566 -7.213606  0.317115
   scf:   18     -298.461465     -298.470074     -298.568733  0.109049 -7.246410  0.028684
   scf:   19     -298.470420     -298.470270     -298.568898  0.003028 -7.255269  0.015184
   scf:   20     -298.470424     -298.470376     -298.568962  0.003389 -7.257641  0.002255
   scf:   21     -298.470377     -298.470377     -298.568962  0.000200 -7.256519  0.001531
   scf:   22     -298.470373     -298.470375     -298.568963  0.000362 -7.256696  0.001204
   scf:   23     -298.470374     -298.470375     -298.568963  0.000158 -7.257053  0.001446
   scf:   24     -298.470375     -298.470375     -298.568963  0.000045 -7.257160  0.001174
   scf:   25     -298.470376     -298.470376     -298.568963  0.000075 -7.257031  0.000121

SCF Convergence by DM+H criterion
max |DM_out - DM_in|         :     0.0000750117
max |H_out - H_in|      (eV) :     0.0001205447
SCF cycle converged after 25 iterations

Using DM_out to compute the final energy and forces
No. of atoms with KB's overlaping orbs in proc 0. Max # of overlaps:       2      26

siesta: E_KS(eV) =             -298.4704

siesta: Atomic forces (eV/Ang):
----------------------------------------
   Tot   -0.000098    0.000000    0.000000
----------------------------------------
   Max    6.517533
   Res    3.762871    sqrt( Sum f_i^2 / 3N )
----------------------------------------
   Max    6.093906    constrained

Stress tensor Voigt[x,y,z,yz,xz,xy] (kbar):        3.38        0.00        0.00        0.00       -0.00       -0.00
(Free)E + p*V (eV/cell)     -302.0220
Target enthalpy (eV/cell)     -298.5690

                     ====================================
                        Begin CG opt. move =      2
                     ====================================

outcell: Unit cell vectors (Ang):
       17.000000    0.000000    0.000000
        0.000000   17.000000    0.000000
        0.000000    0.000000   17.000000

outcell: Cell vector modules (Ang)   :   17.000000   17.000000   17.000000
outcell: Cell angles (23,13,12) (deg):     90.0000     90.0000     90.0000
outcell: Cell volume (Ang**3)        :   4913.0000
<dSpData1D:S at geom step 2
  <sparsity:sparsity for geom step 2
    nrows_g=26 nrows=26 sparsity=1.0000 nnzs=676, refcount: 7>
  <dData1D:(new from dSpData1D) n=676, refcount: 1>
refcount: 1>
new_DM -- step:     3
Re-using DM from previous geometries...
Number of DMs in history: 1
 DM extrapolation coefficients: 
1   1.00000
New DM after history re-use:
<dSpData2D:SpM extrapolated using coords
  <sparsity:sparsity for geom step 2
    nrows_g=26 nrows=26 sparsity=1.0000 nnzs=676, refcount: 9>
  <dData2D:(temp array for extrapolation) n=676 m=1, refcount: 1>
refcount: 1>
Note: For starting DM, Qtot, Tr[D*S] =          8.00000000          8.13619113
No. of atoms with KB's overlaping orbs in proc 0. Max # of overlaps:       2      26
New grid distribution:   1
           1       1:   75    1:   75    1:   75

InitMesh: MESH =   150 x   150 x   150 =     3375000
InitMesh: (bp) =    75 x    75 x    75 =      421875
InitMesh: Mesh cutoff (required, used) =   200.000   215.172 Ry
ExtMesh (bp) on 0 =   135 x   135 x   135 =     2460375
PhiOnMesh: Number of (b)points on node 0 =               421875
PhiOnMesh: nlist on node 0 =               265163

        iscf     Eharris(eV)        E_KS(eV)     FreeEng(eV)     dDmax    Ef(eV) dHmax(eV)
   scf:    1     -297.185031     -298.653864     -298.671856  0.525696 -7.610353  1.154184
   scf:    2     -293.624310     -297.777927     -297.849604  0.670030 -6.952050  2.717382
   scf:    3     -298.833524     -298.328982     -298.400860  0.120337 -7.453253  1.514789
   scf:    4     -297.851112     -298.095623     -298.167300  0.059664 -7.223967  2.093882
   scf:    5     -295.603157     -298.439707     -298.439873  0.715989 -7.440743  1.567340
   scf:    6     -298.351814     -298.396068     -298.396123  0.006272 -7.467337  1.674575
   scf:    7     -298.467426     -298.431900     -298.432074  0.003885 -7.452548  1.599419
   scf:    8     -298.227866     -298.331238     -298.331251  0.011178 -7.472443  1.832539
   scf:    9     -296.396029     -298.631357     -298.718667  0.710345 -7.407977  1.098983
   scf:   10     -297.059211     -298.733341     -298.760568  0.628437 -7.436154  0.995112
   scf:   11     -298.779506     -298.756585     -298.787083  0.008508 -7.436858  0.962344
   scf:   12     -298.923169     -298.842501     -298.884882  0.034454 -7.436541  0.838945
   scf:   13     -298.828299     -298.835420     -298.876865  0.002934 -7.439224  0.849962
   scf:   14     -298.650838     -299.074492     -299.172966  0.383097 -7.528287  0.347926
   scf:   15     -298.668271     -299.037695     -299.107427  0.272896 -7.450741  0.500381
   scf:   16     -299.137979     -299.141472     -299.233543  0.155444 -7.494250  0.022112
   scf:   17     -298.349695     -298.876785     -298.925509  0.248929 -7.577405  0.820917
   scf:   18     -298.567886     -299.052980     -299.151671  0.384197 -7.476465  0.415411
   scf:   19     -299.072527     -299.134781     -299.222466  0.178306 -7.475709  0.146411
   scf:   20     -299.143042     -299.141424     -299.232725  0.033150 -7.491457  0.044393
   scf:   21     -299.141478     -299.141452     -299.232815  0.000635 -7.491684  0.042562
   scf:   22     -299.140814     -299.141371     -299.233708  0.010419 -7.495962  0.011079
   scf:   23     -299.140759     -299.141099     -299.233776  0.003818 -7.497488  0.000495
   scf:   24     -299.141144     -299.141122     -299.233776  0.000376 -7.497326  0.000409
   scf:   25     -299.141103     -299.141112     -299.233776  0.000114 -7.497380  0.000333
   scf:   26     -299.141132     -299.141122     -299.233776  0.000163 -7.497452  0.000378
   scf:   27     -299.141094     -299.141108     -299.233776  0.000181 -7.497565  0.000067
   scf:   28     -299.141109     -299.141108     -299.233776  0.000005 -7.497562  0.000047

SCF Convergence by DM+H criterion
max |DM_out - DM_in|         :     0.0000050529
max |H_out - H_in|      (eV) :     0.0000473275
SCF cycle converged after 28 iterations

Using DM_out to compute the final energy and forces
No. of atoms with KB's overlaping orbs in proc 0. Max # of overlaps:       2      26

siesta: E_KS(eV) =             -299.1411

siesta: Atomic forces (eV/Ang):
----------------------------------------
   Tot   -0.010505   -0.000000   -0.000000
----------------------------------------
   Max    5.882130
   Res    3.393018    sqrt( Sum f_i^2 / 3N )
----------------------------------------
   Max    0.320489    constrained

Stress tensor Voigt[x,y,z,yz,xz,xy] (kbar):        2.85       -0.00       -0.00       -0.00       -0.00        0.00
(Free)E + p*V (eV/cell)     -302.1463
Target enthalpy (eV/cell)     -299.2338

                     ====================================
                        Begin CG opt. move =      3
                     ====================================

outcell: Unit cell vectors (Ang):
       17.000000    0.000000    0.000000
        0.000000   17.000000    0.000000
        0.000000    0.000000   17.000000

outcell: Cell vector modules (Ang)   :   17.000000   17.000000   17.000000
outcell: Cell angles (23,13,12) (deg):     90.0000     90.0000     90.0000
outcell: Cell volume (Ang**3)        :   4913.0000
<dSpData1D:S at geom step 3
  <sparsity:sparsity for geom step 3
    nrows_g=26 nrows=26 sparsity=1.0000 nnzs=676, refcount: 7>
  <dData1D:(new from dSpData1D) n=676, refcount: 1>
refcount: 1>
new_DM -- step:     4
Re-using DM from previous geometries...
Number of DMs in history: 1
 DM extrapolation coefficients: 
1   1.00000
New DM after history re-use:
<dSpData2D:SpM extrapolated using coords
  <sparsity:sparsity for geom step 3
    nrows_g=26 nrows=26 sparsity=1.0000 nnzs=676, refcount: 9>
  <dData2D:(temp array for extrapolation) n=676 m=1, refcount: 1>
refcount: 1>
Note: For starting DM, Qtot, Tr[D*S] =          8.00000000          8.16007741
No. of atoms with KB's overlaping orbs in proc 0. Max # of overlaps:       2      26
New grid distribution:   1
           1       1:   75    1:   75    1:   75

InitMesh: MESH =   150 x   150 x   150 =     3375000
InitMesh: (bp) =    75 x    75 x    75 =      421875
InitMesh: Mesh cutoff (required, used) =   200.000   215.172 Ry
ExtMesh (bp) on 0 =   135 x   135 x   135 =     2460375
PhiOnMesh: Number of (b)points on node 0 =               421875
PhiOnMesh: nlist on node 0 =               265023

        iscf     Eharris(eV)        E_KS(eV)     FreeEng(eV)     dDmax    Ef(eV) dHmax(eV)
   scf:    1     -298.383742     -299.410846     -299.414499  0.470914 -7.930788  1.090095
   scf:    2     -292.684709     -297.796351     -297.868028  0.806002 -7.112621  2.893305
   scf:    3     -299.903499     -298.981357     -299.077302  0.156739 -7.754869  1.267058
   scf:    4     -296.522294     -297.872371     -297.944048  0.149088 -7.249169  2.732799
   scf:    5     -297.796701     -299.437159     -299.440660  0.781530 -7.717236  0.959259
   scf:    6     -299.352842     -299.395643     -299.396420  0.011132 -7.726972  1.115343
   scf:    7     -299.454292     -299.425303     -299.427618  0.007722 -7.713958  1.002294
   scf:    8     -299.516457     -299.471849     -299.480863  0.016919 -7.687545  0.852832
   scf:    9     -299.565981     -299.673115     -299.753423  0.274607 -7.645163  0.160261
   scf:   10     -298.897556     -299.447944     -299.452693  0.283544 -7.702005  0.916879
   scf:   11     -299.463992     -299.455997     -299.462116  0.002993 -7.703872  0.892911
   scf:   12     -295.560218     -298.643022     -298.730820  0.720407 -7.705421  1.526891
   scf:   13     -298.901993     -299.605154     -299.645768  0.628888 -7.684983  0.497787
   scf:   14     -299.386513     -299.628120     -299.716931  0.254122 -7.697998  0.308490
   scf:   15     -299.666899     -299.682267     -299.752540  0.130222 -7.703949  0.102931
   scf:   16     -299.627180     -299.661499     -299.719822  0.058049 -7.715440  0.291690
   scf:   17     -299.649466     -299.678481     -299.756975  0.106107 -7.724943  0.042154
   scf:   18     -299.533884     -299.642148     -299.693662  0.133443 -7.703899  0.379478
   scf:   19     -299.670781     -299.682440     -299.757629  0.113008 -7.717054  0.020979
   scf:   20     -299.675546     -299.679555     -299.757410  0.016568 -7.720003  0.030278
   scf:   21     -299.682979     -299.681442     -299.757833  0.009134 -7.718278  0.001756
   scf:   22     -299.681736     -299.681590     -299.757833  0.000909 -7.718246  0.001166
   scf:   23     -299.681449     -299.681520     -299.757834  0.000438 -7.718325  0.000191
   scf:   24     -299.681535     -299.681527     -299.757834  0.000052 -7.718318  0.000026

SCF Convergence by DM+H criterion
max |DM_out - DM_in|         :     0.0000519687
max |H_out - H_in|      (eV) :     0.0000256194
SCF cycle converged after 24 iterations

Using DM_out to compute the final energy and forces
No. of atoms with KB's overlaping orbs in proc 0. Max # of overlaps:       2      26

siesta: E_KS(eV) =             -299.6815

siesta: Atomic forces (eV/Ang):
----------------------------------------
   Tot    0.002424    0.000000   -0.000000
----------------------------------------
   Max    3.699899
   Res    2.135438    sqrt( Sum f_i^2 / 3N )
----------------------------------------
   Max    6.306790    constrained

Stress tensor Voigt[x,y,z,yz,xz,xy] (kbar):        1.66       -0.00       -0.00        0.00       -0.00       -0.00
(Free)E + p*V (eV/cell)     -301.4579
Target enthalpy (eV/cell)     -299.7578

                     ====================================
                        Begin CG opt. move =      4
                     ====================================

outcell: Unit cell vectors (Ang):
       17.000000    0.000000    0.000000
        0.000000   17.000000    0.000000
        0.000000    0.000000   17.000000

outcell: Cell vector modules (Ang)   :   17.000000   17.000000   17.000000
outcell: Cell angles (23,13,12) (deg):     90.0000     90.0000     90.0000
outcell: Cell volume (Ang**3)        :   4913.0000
<dSpData1D:S at geom step 4
  <sparsity:sparsity for geom step 4
    nrows_g=26 nrows=26 sparsity=1.0000 nnzs=676, refcount: 7>
  <dData1D:(new from dSpData1D) n=676, refcount: 1>
refcount: 1>
new_DM -- step:     5
Re-using DM from previous geometries...
Number of DMs in history: 1
 DM extrapolation coefficients: 
1   1.00000
New DM after history re-use:
<dSpData2D:SpM extrapolated using coords
  <sparsity:sparsity for geom step 4
    nrows_g=26 nrows=26 sparsity=1.0000 nnzs=676, refcount: 9>
  <dData2D:(temp array for extrapolation) n=676 m=1, refcount: 1>
refcount: 1>
Note: For starting DM, Qtot, Tr[D*S] =          8.00000000          7.82520888
No. of atoms with KB's overlaping orbs in proc 0. Max # of overlaps:       2      26
New grid distribution:   1
           1       1:   75    1:   75    1:   75

InitMesh: MESH =   150 x   150 x   150 =     3375000
InitMesh: (bp) =    75 x    75 x    75 =      421875
InitMesh: Mesh cutoff (required, used) =   200.000   215.172 Ry
ExtMesh (bp) on 0 =   135 x   135 x   135 =     2460375
PhiOnMesh: Number of (b)points on node 0 =               421875
PhiOnMesh: nlist on node 0 =               265066

        iscf     Eharris(eV)        E_KS(eV)     FreeEng(eV)     dDmax    Ef(eV) dHmax(eV)
   scf:    1     -296.877329     -298.353847     -298.426162  0.598904 -7.245361  1.513423
   scf:    2     -292.926043     -297.566485     -297.566485  0.852533 -7.421238  3.196827
   scf:    3     -299.361447     -298.536302     -298.537406  0.079957 -7.375252  1.448935
   scf:    4     -298.561793     -298.549078     -298.550614  0.001966 -7.374457  1.416127
   scf:    5     -295.619889     -298.440976     -298.517084  0.736024 -7.481535  1.271941
   scf:    6     -298.463123     -298.452071     -298.528833  0.001911 -7.485068  1.254906
   scf:    7     -298.252834     -298.353957     -298.425775  0.011283 -7.473707  1.406082
   scf:    8     -295.988455     -298.539841     -298.540150  0.744170 -7.358368  1.404685
   scf:    9     -298.947715     -298.753111     -298.776754  0.050435 -7.445479  1.023983
   scf:   10     -299.289422     -299.078203     -299.148223  0.161871 -7.460346  0.473528
   scf:   11     -298.398908     -298.786093     -298.814424  0.149724 -7.444589  0.973883
   scf:   12     -298.664098     -298.726088     -298.745648  0.021343 -7.438950  1.059336
   scf:   13     -297.075821     -297.959280     -297.959280  0.078257 -7.140432  2.480648
   scf:   14     -298.797716     -298.390527     -298.390528  0.026450 -7.309209  1.746300
   scf:   15     -295.225696     -298.362374     -298.434495  0.759010 -7.468456  1.415494
   scf:   16     -299.369418     -298.965010     -299.062788  0.177309 -7.478449  0.660223
   scf:   17     -298.733419     -299.103016     -299.177051  0.334291 -7.467815  0.410050
   scf:   18     -296.811961     -298.530402     -298.612024  0.485801 -7.483914  1.196688
   scf:   19     -298.697634     -298.615565     -298.701466  0.022305 -7.484915  1.103882
   scf:   20     -299.145172     -299.171235     -299.261567  0.348140 -7.481036  0.051610
   scf:   21     -299.169673     -299.171139     -299.263151  0.017723 -7.477813  0.051371
   scf:   22     -299.171360     -299.171259     -299.263173  0.001781 -7.486556  0.037282
   scf:   23     -299.162735     -299.167892     -299.261555  0.020401 -7.501487  0.059717
   scf:   24     -299.153236     -299.161370     -299.256373  0.020064 -7.477876  0.128147
   scf:   25     -299.174425     -299.171033     -299.263204  0.038137 -7.508128  0.001261
   scf:   26     -299.171179     -299.171107     -299.263203  0.001186 -7.507821  0.002126
   scf:   27     -299.171023     -299.171066     -299.263205  0.000473 -7.508298  0.000606
   scf:   28     -299.171042     -299.171054     -299.263205  0.000127 -7.508469  0.000405
   scf:   29     -299.171057     -299.171055     -299.263205  0.000041 -7.508635  0.000099

SCF Convergence by DM+H criterion
max |DM_out - DM_in|         :     0.0000405895
max |H_out - H_in|      (eV) :     0.0000993959
SCF cycle converged after 29 iterations

Using DM_out to compute the final energy and forces
No. of atoms with KB's overlaping orbs in proc 0. Max # of overlaps:       2      26

siesta: E_KS(eV) =             -299.1711

siesta: Atomic forces (eV/Ang):
----------------------------------------
   Tot   -0.010418   -0.000000   -0.000000
----------------------------------------
   Max    5.821699
   Res    3.358153    sqrt( Sum f_i^2 / 3N )
----------------------------------------
   Max    0.015425    constrained

Stress tensor Voigt[x,y,z,yz,xz,xy] (kbar):        2.81       -0.00       -0.00        0.00       -0.00       -0.00
(Free)E + p*V (eV/cell)     -302.1370
Target enthalpy (eV/cell)     -299.2632

outcoor: Relaxed atomic coordinates (Ang):                  
    0.26902282   -0.00000000    0.00000000   1       1  C
    1.74952075    0.00000000   -0.00000000   1       2  C

siesta: Program's energy decomposition (eV):
siesta: Ebs     =       -88.273978
siesta: Eions   =       632.268963
siesta: Ena     =       222.268557
siesta: Ekin    =       183.869351
siesta: Enl     =         7.303740
siesta: Eso     =         0.000000
siesta: Edftu   =         0.000000
siesta: DEna    =         0.077208
siesta: DUscf   =         0.102468
siesta: DUext   =         0.000000
siesta: Exc     =       -80.523417
siesta: eta*DQ  =         0.000000
siesta: Emadel  =         0.000000
siesta: Emeta   =         0.000000
siesta: Emolmec =         0.000000
siesta: Ekinion =         0.000000
siesta: Eharris =      -299.171057
siesta: Etot    =      -299.171055
siesta: FreeEng =      -299.263205

siesta: Final energy (eV):
siesta:  Band Struct. =     -88.273978
siesta:       Kinetic =     183.869351
siesta:       Hartree =     314.863381
siesta:       Edftu   =       0.000000
siesta:       Eso     =       0.000000
siesta:    Ext. field =       0.000000
siesta:   Exch.-corr. =     -80.523417
siesta:  Ion-electron =    -796.685065
siesta:       Ion-ion =      79.304695
siesta:       Ekinion =       0.000000
siesta:         Total =    -299.171055
siesta:         Fermi =      -7.508635

siesta: Atomic forces (eV/Ang):
siesta:      1    5.811281   -0.000000    0.000000
siesta:      2   -5.821699   -0.000000   -0.000000
siesta: ----------------------------------------
siesta:    Tot   -0.010418   -0.000000   -0.000000

siesta: Stress tensor (static) (eV/Ang**3):
siesta:     0.001755   -0.000000    0.000000
siesta:    -0.000000   -0.000000    0.000000
siesta:    -0.000000    0.000000   -0.000000

siesta: Cell volume =       4913.000000 Ang**3

siesta: Pressure (static):
siesta:                Solid            Molecule  Units
siesta:          -0.00000637         -0.00000001  Ry/Bohr**3
siesta:          -0.00058494         -0.00000068  eV/Ang**3
siesta:          -0.93718335         -0.00109714  kBar
(Free)E+ p_basis*V_orbitals  =        -298.148229
(Free)Eharris+ p_basis*V_orbitals  =        -298.148230

siesta: Electric dipole (a.u.)  =    0.000019    0.000000   -0.000000
siesta: Electric dipole (Debye) =    0.000049    0.000000   -0.000000

cite: Please see "C.bib" for an exhaustive BiBTeX file.
cite: Please clearly indicate Siesta version in published work: v4.1.5-1-g384057250
cite: This calculation has made use of the following articles
cite: which are encouraged to be cited in a published work.
        Primary SIESTA paper
          DOI: www.doi.org/10.1088/0953-8984/14/11/302
 

timer: Elapsed wall time (sec) =     136.795
timer: CPU execution times (sec):

Routine            Calls   Time/call    Tot.time        %
siesta                 1     136.210     136.210   100.00
Setup                  1       0.273       0.273     0.20
bands                  1       0.000       0.000     0.00
KSV_init               1       0.000       0.000     0.00
IterGeom               5      27.187     135.935    99.80
state_init             5       0.039       0.195     0.14
hsparse                5       0.000       0.001     0.00
overlap                5       0.038       0.189     0.14
Setup_H0               5       1.136       5.678     4.17
naefs                 10       0.000       0.001     0.00
MolMec                10       0.000       0.000     0.00
kinefsm               10       0.018       0.180     0.13
nlefsm                10       0.062       0.619     0.45
DHSCF_Init             5       0.978       4.890     3.59
DHSCF1                 5       0.061       0.307     0.23
INITMESH               5       0.000       0.000     0.00
DHSCF2                 5       0.917       4.583     3.36
REMESH                 5       0.020       0.099     0.07
REORD                350       0.010       3.521     2.58
PHION                  5       0.364       1.818     1.33
COMM_BSC             635       0.007       4.422     3.25
POISON               160       0.427      68.341    50.17
fft                  320       0.157      50.124    36.80
IterSCF              145       0.848     122.947    90.26
setup_H              150       0.818     122.774    90.14
DHSCF                155       0.830     128.704    94.49
DHSCF3               155       0.813     126.065    92.55
rhoofd               155       0.048       7.445     5.47
XC                   155       0.108      16.780    12.32
GXC-CellXC           155       0.066      10.194     7.48
cellXC               155       0.066      10.192     7.48
vmat                 155       0.041       6.337     4.65
compute_dm           145       0.000       0.071     0.05
diagon               145       0.000       0.068     0.05
r-eigvec             145       0.000       0.057     0.04
r-buildHS            145       0.000       0.001     0.00
rdiag                145       0.000       0.055     0.04
rdiag1               145       0.000       0.004     0.00
rdiag2               145       0.000       0.005     0.00
rdiag3               145       0.000       0.039     0.03
rdiag4               145       0.000       0.005     0.00
r-buildD             145       0.000       0.006     0.00
MIXER                140       0.000       0.009     0.01
PostSCF                5       1.421       7.104     5.22
DHSCF4                 5       0.528       2.638     1.94
dfscf                  5       0.401       2.003     1.47
overfsm                5       0.001       0.003     0.00
state_analysis         5       0.001       0.004     0.00
siesta_move            5       0.000       0.002     0.00
Analysis               1       0.002       0.002     0.00
siesta_analysis        1       0.002       0.002     0.00
optical                1       0.000       0.000     0.00
  
>> End of run:   2-OCT-2022  20:18:45
Job completed
