Siesta Version  : v4.1.5-1-g384057250
Architecture    : unknown
Compiler version: ifort (IFORT) 2021.2.0 20210228
Compiler flags  : ifort -O2 -fPIC -fp-model source
PP flags        : -DFC_HAVE_ABORT -DSIESTA__DIAG_2STAGE -DSIESTA__MRRR
Libraries       : libsiestaLAPACK.a libsiestaBLAS.a
SERIAL version

* Running in serial mode
>> Start of run:  30-SEP-2022  23:29:33

                           ***********************       
                           *  WELCOME TO SIESTA  *       
                           ***********************       

reinit: Reading from C.fdf

reinit: -----------------------------------------------------------------------
reinit: System Name: Carbon
reinit: -----------------------------------------------------------------------
reinit: System Label: C
reinit: -----------------------------------------------------------------------

initatom: Reading input for the pseudopotentials and atomic orbitals ----------
Species number:   1 Atomic number:    6 Label: C
 
Ground state valence configuration:   2s02  2p02
Reading pseudopotential information in formatted form from C.psf

Valence configuration for pseudopotential generation:
2s( 2.00) rc: 1.25
2p( 2.00) rc: 1.25
3d( 0.00) rc: 1.25
4f( 0.00) rc: 1.25
For C, standard SIESTA heuristics set lmxkb to 3
 (one more than the basis l, including polarization orbitals).
Use PS.lmax or PS.KBprojectors blocks to override.

<basis_specs>
===============================================================================
C                    Z=   6    Mass=  12.010        Charge= 0.17977+309
Lmxo=1 Lmxkb= 3    BasisType=split      Semic=F
L=0  Nsemic=0  Cnfigmx=2
          i=1  nzeta=2  polorb=0  (2s)
            splnorm:   0.15000    
               vcte:    0.0000    
               rinn:    0.0000    
               qcoe:    0.0000    
               qyuk:    0.0000    
               qwid:   0.10000E-01
                rcs:    0.0000      0.0000    
            lambdas:    1.0000      1.0000    
L=1  Nsemic=0  Cnfigmx=2
          i=1  nzeta=2  polorb=1  (2p)
            splnorm:   0.15000    
               vcte:    0.0000    
               rinn:    0.0000    
               qcoe:    0.0000    
               qyuk:    0.0000    
               qwid:   0.10000E-01
                rcs:    0.0000      0.0000    
            lambdas:    1.0000      1.0000    
-------------------------------------------------------------------------------
L=0  Nkbl=1  erefs: 0.17977+309
L=1  Nkbl=1  erefs: 0.17977+309
L=2  Nkbl=1  erefs: 0.17977+309
L=3  Nkbl=1  erefs: 0.17977+309
===============================================================================
</basis_specs>

atom: Called for C                     (Z =   6)

read_vps: Pseudopotential generation method:
read_vps: ATM3      Troullier-Martins                       
Valence charge for ps generation:    4.00000

xc_check: Exchange-correlation functional:
xc_check: Ceperley-Alder
V l=0 = -2*Zval/r beyond r=  1.3951
V l=1 = -2*Zval/r beyond r=  1.3777
V l=2 = -2*Zval/r beyond r=  1.3777
V l=3 = -2*Zval/r beyond r=  1.3777
All V_l potentials equal beyond r=  1.2311
This should be close to max(r_c) in ps generation
All pots = -2*Zval/r beyond r=  1.3951

VLOCAL1: 99.0% of the norm of Vloc inside     28.641 Ry
VLOCAL1: 99.9% of the norm of Vloc inside     65.273 Ry
atom: Maximum radius for 4*pi*r*r*local-pseudopot. charge    1.48507
atom: Maximum radius for r*vlocal+2*Zval:    1.27815
GHOST: No ghost state for L =  0
GHOST: No ghost state for L =  1
GHOST: No ghost state for L =  2
GHOST: No ghost state for L =  3

KBgen: Kleinman-Bylander projectors: 
   l= 0   rc=  1.600766   el= -1.001946   Ekb=  7.816946   kbcos=  0.279978
   l= 1   rc=  1.620907   el= -0.398597   Ekb= -4.829535   kbcos= -0.287433
   l= 2   rc=  1.836783   el=  0.002326   Ekb= -1.327964   kbcos= -0.005365
   l= 3   rc=  1.979871   el=  0.003420   Ekb= -0.522285   kbcos= -0.000569

KBgen: Total number of Kleinman-Bylander projectors:   16
atom: -------------------------------------------------------------------------

atom: SANKEY-TYPE ORBITALS:
atom: Selected multiple-zeta basis: split     

SPLIT: Orbitals with angular momentum L= 0

SPLIT: Basis orbitals for state 2s

SPLIT: PAO cut-off radius determined from an
SPLIT: energy shift=  0.003675 Ry

   izeta = 1
                 lambda =    1.000000
                     rc =    5.120028
                 energy =   -0.998772
                kinetic =    0.858242
    potential(screened) =   -1.857014
       potential(ionic) =   -5.418547

   izeta = 2
                 rmatch =    3.518811
              splitnorm =    0.150000
                 energy =   -0.870182
                kinetic =    1.330004
    potential(screened) =   -2.200186
       potential(ionic) =   -6.017108

SPLIT: Orbitals with angular momentum L= 1

SPLIT: Basis orbitals for state 2p

SPLIT: PAO cut-off radius determined from an
SPLIT: energy shift=  0.003675 Ry

   izeta = 1
                 lambda =    1.000000
                     rc =    6.253707
                 energy =   -0.395142
                kinetic =    2.439321
    potential(screened) =   -2.834463
       potential(ionic) =   -6.264070

   izeta = 2
                 rmatch =    3.745781
              splitnorm =    0.150000
                 energy =   -0.266467
                kinetic =    3.655359
    potential(screened) =   -3.921826
       potential(ionic) =   -7.757575

POLgen: Perturbative polarization orbital with L=  2

POLgen: Polarization orbital for state 2p

   izeta = 1
                     rc =    6.253707
                 energy =    1.009535
                kinetic =    2.120051
    potential(screened) =   -1.110516
       potential(ionic) =   -3.842863
atom: Total number of Sankey-type orbitals: 13

atm_pop: Valence configuration (for local Pseudopot. screening):
 2s( 2.00)                                                            
 2p( 2.00)                                                            
Vna: chval, zval:    4.00000   4.00000

Vna:  Cut-off radius for the neutral-atom potential:   6.253707

atom: _________________________________________________________________________

prinput: Basis input ----------------------------------------------------------

PAO.BasisType split     

%block ChemicalSpeciesLabel
    1    6 C                       # Species index, atomic number, species label
%endblock ChemicalSpeciesLabel

%block PAO.Basis                 # Define Basis set
C                     2                    # Species label, number of l-shells
 n=2   0   2                         # n, l, Nzeta 
   5.120      3.519   
   1.000      1.000   
 n=2   1   2 P   1                   # n, l, Nzeta, Polarization, NzetaPol
   6.254      3.746   
   1.000      1.000   
%endblock PAO.Basis

prinput: ----------------------------------------------------------------------

coor:   Atomic-coordinates input format  =     Cartesian coordinates
coor:                                          (in Angstroms)

siesta: Atomic coordinates (Bohr) and species
siesta:      0.72270   0.00000   0.00000  1        1
siesta:      3.09179   0.00000   0.00000  1        2

siesta: System type = molecule  

initatomlists: Number of atoms, orbitals, and projectors:      2    26    32

siesta: ******************** Simulation parameters ****************************
siesta:
siesta: The following are some of the parameters of the simulation.
siesta: A complete list of the parameters used, including default values,
siesta: can be found in file out.fdf
siesta:
redata: Spin configuration                          = none
redata: Number of spin components                   = 1
redata: Time-Reversal Symmetry                      = T
redata: Spin spiral                                 = F
redata: Long output                                 =   F
redata: Number of Atomic Species                    =        1
redata: Charge density info will appear in .RHO file
redata: Write Mulliken Pop.                         = NO
redata: Matel table size (NRTAB)                    =     1024
redata: Mesh Cutoff                                 =   200.0000 Ry
redata: Net charge of the system                    =     0.0000 |e|
redata: Min. number of SCF Iter                     =        0
redata: Max. number of SCF Iter                     =      200
redata: SCF convergence failure will abort job
redata: SCF mix quantity                            = Hamiltonian
redata: Mix DM or H after convergence               =   F
redata: Recompute H after scf cycle                 =   F
redata: Mix DM in first SCF step                    =   T
redata: Write Pulay info on disk                    =   F
redata: New DM Occupancy tolerance                  = 0.000000000001
redata: No kicks to SCF
redata: DM Mixing Weight for Kicks                  =     0.5000
redata: Require Harris convergence for SCF          =   F
redata: Harris energy tolerance for SCF             =     0.000100 eV
redata: Require DM convergence for SCF              =   T
redata: DM tolerance for SCF                        =     0.000100
redata: Require EDM convergence for SCF             =   F
redata: EDM tolerance for SCF                       =     0.001000 eV
redata: Require H convergence for SCF               =   T
redata: Hamiltonian tolerance for SCF               =     0.001000 eV
redata: Require (free) Energy convergence for SCF   =   F
redata: (free) Energy tolerance for SCF             =     0.000100 eV
redata: Using Saved Data (generic)                  =   F
redata: Use continuation files for DM               =   F
redata: Neglect nonoverlap interactions             =   F
redata: Method of Calculation                       = Diagonalization
redata: Electronic Temperature                      =   299.9978 K
redata: Fix the spin of the system                  =   F
redata: Dynamics option                             = CG coord. optimization
redata: Variable cell                               =   F
redata: Use continuation files for CG               =   F
redata: Max atomic displ per move                   =     0.0529 Ang
redata: Maximum number of optimization moves        =      150
redata: Force tolerance                             =     0.0400 eV/Ang
mix.SCF: Pulay mixing                            = Pulay
mix.SCF:    Variant                              = stable
mix.SCF:    History steps                        = 5
mix.SCF:    Linear mixing weight                 =     0.100000
mix.SCF:    Mixing weight                        =     0.100000
mix.SCF:    SVD condition                        = 0.1000E-07
redata: ***********************************************************************

%block SCF.Mixers
  Pulay
%endblock SCF.Mixers

%block SCF.Mixer.Pulay
  # Mixing method
  method pulay
  variant stable

  # Mixing options
  weight 0.1000
  weight.linear 0.1000
  history 5
%endblock SCF.Mixer.Pulay
 
DM_history_depth set to one: no extrapolation allowed by default for geometry relaxation
Size of DM history Fstack: 1
Total number of electrons:     8.000000
Total ionic charge:     8.000000
 Kpoints in:            1 . Kpoints trimmed:            1

siesta: k-grid: Number of k-points =     1
siesta: k-grid: Cutoff (effective) =     8.500 Ang
siesta: k-grid: Supercell and displacements
siesta: k-grid:    1   0   0      0.000
siesta: k-grid:    0   1   0      0.000
siesta: k-grid:    0   0   1      0.000
 
diag: Algorithm                                     = D&C
diag: Used triangular part                          = Lower
diag: Absolute tolerance                            =  0.100E-15
diag: Orthogonalization factor                      =  0.100E-05
diag: Memory factor                                 =  1.0000
 
siesta: Constraints using custom constr routine
 
ts: **************************************************************
ts: Save H and S matrices                           =    F
ts: Save DM and EDM matrices                        =    F
ts: Only save the overlap matrix S                  =    F
ts: **************************************************************
 
************************ Begin: TS CHECKS AND WARNINGS ************************
************************ End: TS CHECKS AND WARNINGS **************************


                     ====================================
                        Begin CG opt. move =      0
                     ====================================

outcell: Unit cell vectors (Ang):
       17.000000    0.000000    0.000000
        0.000000   17.000000    0.000000
        0.000000    0.000000   17.000000

outcell: Cell vector modules (Ang)   :   17.000000   17.000000   17.000000
outcell: Cell angles (23,13,12) (deg):     90.0000     90.0000     90.0000
outcell: Cell volume (Ang**3)        :   4913.0000
<dSpData1D:S at geom step 0
  <sparsity:sparsity for geom step 0
    nrows_g=26 nrows=26 sparsity=1.0000 nnzs=676, refcount: 7>
  <dData1D:(new from dSpData1D) n=676, refcount: 1>
refcount: 1>
new_DM -- step:     1
Initializing Density Matrix...
DM filled with atomic data:
<dSpData2D:DM initialized from atoms
  <sparsity:sparsity for geom step 0
    nrows_g=26 nrows=26 sparsity=1.0000 nnzs=676, refcount: 8>
  <dData2D:DM n=676 m=1, refcount: 1>
refcount: 1>
No. of atoms with KB's overlaping orbs in proc 0. Max # of overlaps:       2      26
New grid distribution:   1
           1       1:   75    1:   75    1:   75

InitMesh: MESH =   150 x   150 x   150 =     3375000
InitMesh: (bp) =    75 x    75 x    75 =      421875
InitMesh: Mesh cutoff (required, used) =   200.000   215.172 Ry
ExtMesh (bp) on 0 =   135 x   135 x   135 =     2460375
PhiOnMesh: Number of (b)points on node 0 =               421875
PhiOnMesh: nlist on node 0 =               265046

stepf: Fermi-Dirac step function

siesta: Program's energy decomposition (eV):
siesta: Ebs     =       -78.028919
siesta: Eions   =       632.268963
siesta: Ena     =       220.613612
siesta: Ekin    =       203.184817
siesta: Enl     =         3.882001
siesta: Eso     =         0.000000
siesta: Edftu   =         0.000000
siesta: DEna    =       -10.912049
siesta: DUscf   =         2.297456
siesta: DUext   =         0.000000
siesta: Exc     =       -85.946488
siesta: eta*DQ  =         0.000000
siesta: Emadel  =         0.000000
siesta: Emeta   =         0.000000
siesta: Emolmec =         0.000000
siesta: Ekinion =         0.000000
siesta: Eharris =      -298.964329
siesta: Etot    =      -299.149613
siesta: FreeEng =      -299.149613

        iscf     Eharris(eV)        E_KS(eV)     FreeEng(eV)     dDmax    Ef(eV) dHmax(eV)
   scf:    1     -298.964329     -299.149613     -299.149613  1.605037 -9.199942  3.581138
timer: Routine,Calls,Time,% = IterSCF        1       1.752  43.50
   scf:    2     -299.566350     -299.362156     -299.362156  0.021090 -8.957756  2.922034
   scf:    3     -299.475759     -299.726296     -299.794097  0.326397 -7.830455  0.565557
   scf:    4     -299.859925     -299.851924     -299.876054  0.175716 -7.937199  0.103977
   scf:    5     -299.815229     -299.838298     -299.848232  0.044582 -8.058652  0.390498
   scf:    6     -299.811426     -299.841182     -299.881493  0.088220 -7.992676  0.104656
   scf:    7     -299.855111     -299.850676     -299.879320  0.034697 -7.973054  0.100508
   scf:    8     -299.822965     -299.840117     -299.881258  0.040884 -7.947442  0.055173
   scf:    9     -299.844394     -299.842308     -299.881903  0.005394 -7.948770  0.035754
   scf:   10     -299.845876     -299.844140     -299.882266  0.004995 -7.949076  0.018542
   scf:   11     -299.847503     -299.845875     -299.882402  0.005316 -7.948928  0.000528
   scf:   12     -299.846003     -299.845939     -299.882402  0.000213 -7.948915  0.000188
   scf:   13     -299.845884     -299.845912     -299.882402  0.000088 -7.948920  0.000119

SCF Convergence by DM+H criterion
max |DM_out - DM_in|         :     0.0000884066
max |H_out - H_in|      (eV) :     0.0001194165
SCF cycle converged after 13 iterations

Using DM_out to compute the final energy and forces
No. of atoms with KB's overlaping orbs in proc 0. Max # of overlaps:       2      26

siesta: E_KS(eV) =             -299.8459

siesta: E_KS - E_eggbox =      -299.8459

siesta: Atomic forces (eV/Ang):
----------------------------------------
   Tot   -0.001790   -0.000000   -0.000000
----------------------------------------
   Max    2.608342
   Res    1.505410    sqrt( Sum f_i^2 / 3N )
----------------------------------------
   Max    7.397713    constrained

Stress tensor Voigt[x,y,z,yz,xz,xy] (kbar):       -1.07        0.00        0.00        0.00        0.00       -0.00
(Free)E + p*V (eV/cell)     -298.7939
Target enthalpy (eV/cell)     -299.8824

                     ====================================
                        Begin CG opt. move =      1
                     ====================================

outcell: Unit cell vectors (Ang):
       17.000000    0.000000    0.000000
        0.000000   17.000000    0.000000
        0.000000    0.000000   17.000000

outcell: Cell vector modules (Ang)   :   17.000000   17.000000   17.000000
outcell: Cell angles (23,13,12) (deg):     90.0000     90.0000     90.0000
outcell: Cell volume (Ang**3)        :   4913.0000
<dSpData1D:S at geom step 1
  <sparsity:sparsity for geom step 1
    nrows_g=26 nrows=26 sparsity=1.0000 nnzs=676, refcount: 7>
  <dData1D:(new from dSpData1D) n=676, refcount: 1>
refcount: 1>
new_DM -- step:     2
Re-using DM from previous geometries...
Number of DMs in history: 1
 DM extrapolation coefficients: 
1   1.00000
New DM after history re-use:
<dSpData2D:SpM extrapolated using coords
  <sparsity:sparsity for geom step 1
    nrows_g=26 nrows=26 sparsity=1.0000 nnzs=676, refcount: 9>
  <dData2D:(temp array for extrapolation) n=676 m=1, refcount: 1>
refcount: 1>
Note: For starting DM, Qtot, Tr[D*S] =          8.00000000          8.14676596
No. of atoms with KB's overlaping orbs in proc 0. Max # of overlaps:       2      26
New grid distribution:   1
           1       1:   75    1:   75    1:   75

InitMesh: MESH =   150 x   150 x   150 =     3375000
InitMesh: (bp) =    75 x    75 x    75 =      421875
InitMesh: Mesh cutoff (required, used) =   200.000   215.172 Ry
ExtMesh (bp) on 0 =   135 x   135 x   135 =     2460375
PhiOnMesh: Number of (b)points on node 0 =               421875
PhiOnMesh: nlist on node 0 =               265171

        iscf     Eharris(eV)        E_KS(eV)     FreeEng(eV)     dDmax    Ef(eV) dHmax(eV)
   scf:    1     -299.285298     -299.399786     -299.399931  0.152722 -8.423623  0.968114
   scf:    2     -299.169738     -299.340086     -299.370314  0.116285 -7.754732  0.975053
   scf:    3     -299.485904     -299.436624     -299.438852  0.089870 -8.098034  0.070357
   scf:    4     -299.436466     -299.436568     -299.439179  0.001800 -8.082844  0.036785
   scf:    5     -299.421426     -299.429553     -299.438227  0.013712 -8.079572  0.073474
   scf:    6     -299.435450     -299.432553     -299.439030  0.004534 -8.071223  0.047744
   scf:    7     -299.436931     -299.434807     -299.439420  0.004596 -8.078958  0.008105
   scf:    8     -299.435569     -299.435190     -299.439432  0.000865 -8.079352  0.000416
   scf:    9     -299.435223     -299.435207     -299.439432  0.000040 -8.079373  0.000092

SCF Convergence by DM+H criterion
max |DM_out - DM_in|         :     0.0000398288
max |H_out - H_in|      (eV) :     0.0000916288
SCF cycle converged after 9 iterations

Using DM_out to compute the final energy and forces
No. of atoms with KB's overlaping orbs in proc 0. Max # of overlaps:       2      26

siesta: E_KS(eV) =             -299.4352

siesta: Atomic forces (eV/Ang):
----------------------------------------
   Tot    0.000885   -0.000000   -0.000000
----------------------------------------
   Max    9.872769
   Res    5.699790    sqrt( Sum f_i^2 / 3N )
----------------------------------------
   Max    1.183908    constrained

Stress tensor Voigt[x,y,z,yz,xz,xy] (kbar):       -3.79        0.00        0.00        0.00        0.00        0.00
(Free)E + p*V (eV/cell)     -295.5607
Target enthalpy (eV/cell)     -299.4394

                     ====================================
                        Begin CG opt. move =      2
                     ====================================

outcell: Unit cell vectors (Ang):
       17.000000    0.000000    0.000000
        0.000000   17.000000    0.000000
        0.000000    0.000000   17.000000

outcell: Cell vector modules (Ang)   :   17.000000   17.000000   17.000000
outcell: Cell angles (23,13,12) (deg):     90.0000     90.0000     90.0000
outcell: Cell volume (Ang**3)        :   4913.0000
<dSpData1D:S at geom step 2
  <sparsity:sparsity for geom step 2
    nrows_g=26 nrows=26 sparsity=1.0000 nnzs=676, refcount: 7>
  <dData1D:(new from dSpData1D) n=676, refcount: 1>
refcount: 1>
new_DM -- step:     3
Re-using DM from previous geometries...
Number of DMs in history: 1
 DM extrapolation coefficients: 
1   1.00000
New DM after history re-use:
<dSpData2D:SpM extrapolated using coords
  <sparsity:sparsity for geom step 2
    nrows_g=26 nrows=26 sparsity=1.0000 nnzs=676, refcount: 9>
  <dData2D:(temp array for extrapolation) n=676 m=1, refcount: 1>
refcount: 1>
Note: For starting DM, Qtot, Tr[D*S] =          8.00000000          7.97886283
No. of atoms with KB's overlaping orbs in proc 0. Max # of overlaps:       2      26
New grid distribution:   1
           1       1:   75    1:   75    1:   75

InitMesh: MESH =   150 x   150 x   150 =     3375000
InitMesh: (bp) =    75 x    75 x    75 =      421875
InitMesh: Mesh cutoff (required, used) =   200.000   215.172 Ry
ExtMesh (bp) on 0 =   135 x   135 x   135 =     2460375
PhiOnMesh: Number of (b)points on node 0 =               421875
PhiOnMesh: nlist on node 0 =               265142

        iscf     Eharris(eV)        E_KS(eV)     FreeEng(eV)     dDmax    Ef(eV) dHmax(eV)
   scf:    1     -299.519675     -299.524353     -299.533864  0.019485 -8.009783  0.145878
   scf:    2     -299.531044     -299.528797     -299.533639  0.015825 -8.109622  0.144561
   scf:    3     -299.526360     -299.527860     -299.534800  0.007445 -8.058647  0.004917
   scf:    4     -299.529198     -299.528530     -299.534712  0.002012 -8.061694  0.020135
   scf:    5     -299.527364     -299.527962     -299.534793  0.001649 -8.060850  0.008653
   scf:    6     -299.527056     -299.527512     -299.534809  0.001188 -8.060095  0.001349
   scf:    7     -299.527306     -299.527408     -299.534807  0.000259 -8.059933  0.000219
   scf:    8     -299.527438     -299.527423     -299.534807  0.000036 -8.059954  0.000015

SCF Convergence by DM+H criterion
max |DM_out - DM_in|         :     0.0000363420
max |H_out - H_in|      (eV) :     0.0000154475
SCF cycle converged after 8 iterations

Using DM_out to compute the final energy and forces
No. of atoms with KB's overlaping orbs in proc 0. Max # of overlaps:       2      26

siesta: E_KS(eV) =             -299.5274

siesta: Atomic forces (eV/Ang):
----------------------------------------
   Tot    0.000567   -0.000000   -0.000000
----------------------------------------
   Max    8.617703
   Res    4.975269    sqrt( Sum f_i^2 / 3N )
----------------------------------------
   Max    0.573250    constrained

Stress tensor Voigt[x,y,z,yz,xz,xy] (kbar):       -3.34        0.00        0.00       -0.00        0.00        0.00
(Free)E + p*V (eV/cell)     -296.1198
Target enthalpy (eV/cell)     -299.5348

cgvc: Finished line minimization    1.  Mean atomic displacement =    0.0610

                     ====================================
                        Begin CG opt. move =      3
                     ====================================

outcell: Unit cell vectors (Ang):
       17.000000    0.000000    0.000000
        0.000000   17.000000    0.000000
        0.000000    0.000000   17.000000

outcell: Cell vector modules (Ang)   :   17.000000   17.000000   17.000000
outcell: Cell angles (23,13,12) (deg):     90.0000     90.0000     90.0000
outcell: Cell volume (Ang**3)        :   4913.0000
<dSpData1D:S at geom step 3
  <sparsity:sparsity for geom step 3
    nrows_g=26 nrows=26 sparsity=1.0000 nnzs=676, refcount: 7>
  <dData1D:(new from dSpData1D) n=676, refcount: 1>
refcount: 1>
new_DM -- step:     4
Re-using DM from previous geometries...
Number of DMs in history: 1
 DM extrapolation coefficients: 
1   1.00000
New DM after history re-use:
<dSpData2D:SpM extrapolated using coords
  <sparsity:sparsity for geom step 3
    nrows_g=26 nrows=26 sparsity=1.0000 nnzs=676, refcount: 9>
  <dData2D:(temp array for extrapolation) n=676 m=1, refcount: 1>
refcount: 1>
Note: For starting DM, Qtot, Tr[D*S] =          8.00000000          8.13085584
No. of atoms with KB's overlaping orbs in proc 0. Max # of overlaps:       2      26
New grid distribution:   1
           1       1:   75    1:   75    1:   75

InitMesh: MESH =   150 x   150 x   150 =     3375000
InitMesh: (bp) =    75 x    75 x    75 =      421875
InitMesh: Mesh cutoff (required, used) =   200.000   215.172 Ry
ExtMesh (bp) on 0 =   135 x   135 x   135 =     2460375
PhiOnMesh: Number of (b)points on node 0 =               421875
PhiOnMesh: nlist on node 0 =               265555

        iscf     Eharris(eV)        E_KS(eV)     FreeEng(eV)     dDmax    Ef(eV) dHmax(eV)
   scf:    1     -298.637552     -298.669801     -298.669819  0.068805 -8.526833  0.917340
   scf:    2     -298.637598     -298.674887     -298.675106  0.041572 -7.902172  0.802015
   scf:    3     -298.705393     -298.695024     -298.695094  0.020211 -8.197645  0.017666
   scf:    4     -298.694945     -298.695005     -298.695070  0.002032 -8.180608  0.038574
   scf:    5     -298.695088     -298.695055     -298.695113  0.000864 -8.193722  0.005809
   scf:    6     -298.694991     -298.695032     -298.695085  0.000866 -8.207609  0.029299
   scf:    7     -298.695069     -298.695057     -298.695114  0.000706 -8.197036  0.000786
   scf:    8     -298.695056     -298.695056     -298.695114  0.000019 -8.196740  0.000009

SCF Convergence by DM+H criterion
max |DM_out - DM_in|         :     0.0000194607
max |H_out - H_in|      (eV) :     0.0000094835
SCF cycle converged after 8 iterations

Using DM_out to compute the final energy and forces
No. of atoms with KB's overlaping orbs in proc 0. Max # of overlaps:       2      26

siesta: E_KS(eV) =             -298.6951

siesta: Atomic forces (eV/Ang):
----------------------------------------
   Tot   -0.001703    0.000000    0.000000
----------------------------------------
   Max   18.022444
   Res   10.404771    sqrt( Sum f_i^2 / 3N )
----------------------------------------
   Max   11.966558    constrained

Stress tensor Voigt[x,y,z,yz,xz,xy] (kbar):       -6.61        0.00        0.00       -0.00       -0.00       -0.00
(Free)E + p*V (eV/cell)     -291.9400
Target enthalpy (eV/cell)     -298.6951

                     ====================================
                        Begin CG opt. move =      4
                     ====================================

outcell: Unit cell vectors (Ang):
       17.000000    0.000000    0.000000
        0.000000   17.000000    0.000000
        0.000000    0.000000   17.000000

outcell: Cell vector modules (Ang)   :   17.000000   17.000000   17.000000
outcell: Cell angles (23,13,12) (deg):     90.0000     90.0000     90.0000
outcell: Cell volume (Ang**3)        :   4913.0000
<dSpData1D:S at geom step 4
  <sparsity:sparsity for geom step 4
    nrows_g=26 nrows=26 sparsity=1.0000 nnzs=676, refcount: 7>
  <dData1D:(new from dSpData1D) n=676, refcount: 1>
refcount: 1>
new_DM -- step:     5
Re-using DM from previous geometries...
Number of DMs in history: 1
 DM extrapolation coefficients: 
1   1.00000
New DM after history re-use:
<dSpData2D:SpM extrapolated using coords
  <sparsity:sparsity for geom step 4
    nrows_g=26 nrows=26 sparsity=1.0000 nnzs=676, refcount: 9>
  <dData2D:(temp array for extrapolation) n=676 m=1, refcount: 1>
refcount: 1>
Note: For starting DM, Qtot, Tr[D*S] =          8.00000000          7.87608687
No. of atoms with KB's overlaping orbs in proc 0. Max # of overlaps:       2      26
New grid distribution:   1
           1       1:   75    1:   75    1:   75

InitMesh: MESH =   150 x   150 x   150 =     3375000
InitMesh: (bp) =    75 x    75 x    75 =      421875
InitMesh: Mesh cutoff (required, used) =   200.000   215.172 Ry
ExtMesh (bp) on 0 =   135 x   135 x   135 =     2460375
PhiOnMesh: Number of (b)points on node 0 =               421875
PhiOnMesh: nlist on node 0 =               265246

        iscf     Eharris(eV)        E_KS(eV)     FreeEng(eV)     dDmax    Ef(eV) dHmax(eV)
   scf:    1     -299.369542     -299.465296     -299.479330  0.086167 -7.753848  0.902312
   scf:    2     -299.439858     -299.481029     -299.481818  0.063933 -8.365674  0.832299
   scf:    3     -299.516631     -299.504751     -299.508518  0.023772 -8.064561  0.035109
   scf:    4     -299.505329     -299.505068     -299.508029  0.002967 -8.080059  0.067884
   scf:    5     -299.397493     -299.460106     -299.487904  0.066037 -8.040578  0.264990
   scf:    6     -299.445834     -299.453058     -299.483136  0.006737 -8.041657  0.288784
   scf:    7     -299.536516     -299.503278     -299.508857  0.065190 -8.066313  0.013478
   scf:    8     -299.502615     -299.502947     -299.508881  0.000902 -8.065675  0.007305
   scf:    9     -299.502710     -299.502829     -299.508886  0.000305 -8.065590  0.005214
   scf:   10     -299.503293     -299.503063     -299.508876  0.000605 -8.065832  0.009398
   scf:   11     -299.501222     -299.502153     -299.508885  0.002200 -8.065085  0.005805
   scf:   12     -299.502894     -299.502525     -299.508892  0.000875 -8.065397  0.000125
   scf:   13     -299.502504     -299.502515     -299.508892  0.000026 -8.065388  0.000056

SCF Convergence by DM+H criterion
max |DM_out - DM_in|         :     0.0000261895
max |H_out - H_in|      (eV) :     0.0000559829
SCF cycle converged after 13 iterations

Using DM_out to compute the final energy and forces
No. of atoms with KB's overlaping orbs in proc 0. Max # of overlaps:       2      26

siesta: E_KS(eV) =             -299.5025

siesta: Atomic forces (eV/Ang):
----------------------------------------
   Tot    0.000735    0.000000    0.000000
----------------------------------------
   Max    8.965946
   Res    5.176279    sqrt( Sum f_i^2 / 3N )
----------------------------------------
   Max    0.081940    constrained

Stress tensor Voigt[x,y,z,yz,xz,xy] (kbar):       -3.47        0.00        0.00       -0.00       -0.00       -0.00
(Free)E + p*V (eV/cell)     -295.9650
Target enthalpy (eV/cell)     -299.5089

cgvc: Finished line minimization    2.  Mean atomic displacement =    0.0028

                     ====================================
                        Begin CG opt. move =      5
                     ====================================

outcell: Unit cell vectors (Ang):
       17.000000    0.000000    0.000000
        0.000000   17.000000    0.000000
        0.000000    0.000000   17.000000

outcell: Cell vector modules (Ang)   :   17.000000   17.000000   17.000000
outcell: Cell angles (23,13,12) (deg):     90.0000     90.0000     90.0000
outcell: Cell volume (Ang**3)        :   4913.0000
<dSpData1D:S at geom step 5
  <sparsity:sparsity for geom step 5
    nrows_g=26 nrows=26 sparsity=1.0000 nnzs=676, refcount: 7>
  <dData1D:(new from dSpData1D) n=676, refcount: 1>
refcount: 1>
new_DM -- step:     6
Re-using DM from previous geometries...
Number of DMs in history: 1
 DM extrapolation coefficients: 
1   1.00000
New DM after history re-use:
<dSpData2D:SpM extrapolated using coords
  <sparsity:sparsity for geom step 5
    nrows_g=26 nrows=26 sparsity=1.0000 nnzs=676, refcount: 9>
  <dData2D:(temp array for extrapolation) n=676 m=1, refcount: 1>
refcount: 1>
No. of atoms with KB's overlaping orbs in proc 0. Max # of overlaps:       2      26
New grid distribution:   1
           1       1:   75    1:   75    1:   75

InitMesh: MESH =   150 x   150 x   150 =     3375000
InitMesh: (bp) =    75 x    75 x    75 =      421875
InitMesh: Mesh cutoff (required, used) =   200.000   215.172 Ry
ExtMesh (bp) on 0 =   135 x   135 x   135 =     2460375
PhiOnMesh: Number of (b)points on node 0 =               421875
PhiOnMesh: nlist on node 0 =               265206

        iscf     Eharris(eV)        E_KS(eV)     FreeEng(eV)     dDmax    Ef(eV) dHmax(eV)
   scf:    1     -299.477187     -299.476808     -299.481853  0.005141 -8.085269  0.041171
   scf:    2     -299.474735     -299.475853     -299.481862  0.003624 -8.057130  0.039735
   scf:    3     -299.476995     -299.476443     -299.481938  0.001890 -8.071216  0.000882
   scf:    4     -299.476491     -299.476467     -299.481938  0.000074 -8.070863  0.000329

SCF Convergence by DM+H criterion
max |DM_out - DM_in|         :     0.0000738148
max |H_out - H_in|      (eV) :     0.0003290040
SCF cycle converged after 4 iterations

Using DM_out to compute the final energy and forces
No. of atoms with KB's overlaping orbs in proc 0. Max # of overlaps:       2      26

siesta: E_KS(eV) =             -299.4765

siesta: Atomic forces (eV/Ang):
----------------------------------------
   Tot    0.000472   -0.000000   -0.000000
----------------------------------------
   Max    9.322080
   Res    5.381969    sqrt( Sum f_i^2 / 3N )
----------------------------------------
   Max    0.418166    constrained

Stress tensor Voigt[x,y,z,yz,xz,xy] (kbar):       -3.60        0.00        0.00        0.00        0.00        0.00
(Free)E + p*V (eV/cell)     -295.8062
Target enthalpy (eV/cell)     -299.4819

                     ====================================
                        Begin CG opt. move =      6
                     ====================================

outcell: Unit cell vectors (Ang):
       17.000000    0.000000    0.000000
        0.000000   17.000000    0.000000
        0.000000    0.000000   17.000000

outcell: Cell vector modules (Ang)   :   17.000000   17.000000   17.000000
outcell: Cell angles (23,13,12) (deg):     90.0000     90.0000     90.0000
outcell: Cell volume (Ang**3)        :   4913.0000
<dSpData1D:S at geom step 6
  <sparsity:sparsity for geom step 6
    nrows_g=26 nrows=26 sparsity=1.0000 nnzs=676, refcount: 7>
  <dData1D:(new from dSpData1D) n=676, refcount: 1>
refcount: 1>
new_DM -- step:     7
Re-using DM from previous geometries...
Number of DMs in history: 1
 DM extrapolation coefficients: 
1   1.00000
New DM after history re-use:
<dSpData2D:SpM extrapolated using coords
  <sparsity:sparsity for geom step 6
    nrows_g=26 nrows=26 sparsity=1.0000 nnzs=676, refcount: 9>
  <dData2D:(temp array for extrapolation) n=676 m=1, refcount: 1>
refcount: 1>
No. of atoms with KB's overlaping orbs in proc 0. Max # of overlaps:       2      26
New grid distribution:   1
           1       1:   75    1:   75    1:   75

InitMesh: MESH =   150 x   150 x   150 =     3375000
InitMesh: (bp) =    75 x    75 x    75 =      421875
InitMesh: Mesh cutoff (required, used) =   200.000   215.172 Ry
ExtMesh (bp) on 0 =   135 x   135 x   135 =     2460375
PhiOnMesh: Number of (b)points on node 0 =               421875
PhiOnMesh: nlist on node 0 =               265232

        iscf     Eharris(eV)        E_KS(eV)     FreeEng(eV)     dDmax    Ef(eV) dHmax(eV)
   scf:    1     -299.497346     -299.497915     -299.504515  0.004328 -8.054369  0.034544
   scf:    2     -299.499581     -299.498801     -299.504505  0.003323 -8.077884  0.035098
   scf:    3     -299.497986     -299.498407     -299.504561  0.001721 -8.066036  0.000941
   scf:    4     -299.498388     -299.498398     -299.504561  0.000031 -8.066069  0.000754

SCF Convergence by DM+H criterion
max |DM_out - DM_in|         :     0.0000306805
max |H_out - H_in|      (eV) :     0.0007539418
SCF cycle converged after 4 iterations

Using DM_out to compute the final energy and forces
No. of atoms with KB's overlaping orbs in proc 0. Max # of overlaps:       2      26

siesta: E_KS(eV) =             -299.4984

siesta: Atomic forces (eV/Ang):
----------------------------------------
   Tot    0.000605    0.000000    0.000000
----------------------------------------
   Max    9.023058
   Res    5.209290    sqrt( Sum f_i^2 / 3N )
----------------------------------------
   Max    0.001306    constrained

Stress tensor Voigt[x,y,z,yz,xz,xy] (kbar):       -3.49        0.00        0.00        0.00       -0.00        0.00
(Free)E + p*V (eV/cell)     -295.9395
Target enthalpy (eV/cell)     -299.5046

outcoor: Relaxed atomic coordinates (Ang):                  
    0.41641646   -0.00000000   -0.00000000   1       1  C
    1.60213928   -0.00000000   -0.00000000   1       2  C

siesta: Program's energy decomposition (eV):
siesta: Ebs     =       -92.050200
siesta: Eions   =       632.268963
siesta: Ena     =       220.416862
siesta: Ekin    =       198.728097
siesta: Enl     =         5.036752
siesta: Eso     =         0.000000
siesta: Edftu   =         0.000000
siesta: DEna    =        -7.264653
siesta: DUscf   =         1.058109
siesta: DUext   =         0.000000
siesta: Exc     =       -85.204602
siesta: eta*DQ  =         0.000000
siesta: Emadel  =         0.000000
siesta: Emeta   =         0.000000
siesta: Emolmec =         0.000000
siesta: Ekinion =         0.000000
siesta: Eharris =      -299.498388
siesta: Etot    =      -299.498398
siesta: FreeEng =      -299.504561

siesta: Final energy (eV):
siesta:  Band Struct. =     -92.050200
siesta:       Kinetic =     198.728097
siesta:       Hartree =     351.505520
siesta:       Edftu   =       0.000000
siesta:       Eso     =       0.000000
siesta:    Ext. field =       0.000000
siesta:   Exch.-corr. =     -85.204602
siesta:  Ion-electron =    -882.441350
siesta:       Ion-ion =     117.913938
siesta:       Ekinion =       0.000000
siesta:         Total =    -299.498398
siesta:         Fermi =      -8.066069

siesta: Atomic forces (eV/Ang):
siesta:      1   -9.022453    0.000000    0.000000
siesta:      2    9.023058   -0.000000    0.000000
siesta: ----------------------------------------
siesta:    Tot    0.000605    0.000000    0.000000

siesta: Stress tensor (static) (eV/Ang**3):
siesta:    -0.002177    0.000000    0.000000
siesta:     0.000000    0.000000    0.000000
siesta:    -0.000000    0.000000    0.000000

siesta: Cell volume =       4913.000000 Ang**3

siesta: Pressure (static):
siesta:                Solid            Molecule  Units
siesta:           0.00000790         -0.00000000  Ry/Bohr**3
siesta:           0.00072564         -0.00000023  eV/Ang**3
siesta:           1.16260809         -0.00036442  kBar
(Free)E+ p_basis*V_orbitals  =        -298.389585
(Free)Eharris+ p_basis*V_orbitals  =        -298.389576

siesta: Electric dipole (a.u.)  =   -0.000007    0.000000    0.000000
siesta: Electric dipole (Debye) =   -0.000018    0.000000    0.000000

cite: Please see "C.bib" for an exhaustive BiBTeX file.
cite: Please clearly indicate Siesta version in published work: v4.1.5-1-g384057250
cite: This calculation has made use of the following articles
cite: which are encouraged to be cited in a published work.
        Primary SIESTA paper
          DOI: www.doi.org/10.1088/0953-8984/14/11/302
 

timer: Elapsed wall time (sec) =      76.310
timer: CPU execution times (sec):

Routine            Calls   Time/call    Tot.time        %
siesta                 1      75.961      75.961   100.00
Setup                  1       0.167       0.167     0.22
bands                  1       0.000       0.000     0.00
KSV_init               1       0.000       0.000     0.00
IterGeom               7      10.827      75.792    99.78
state_init             7       0.028       0.198     0.26
hsparse                7       0.000       0.001     0.00
overlap                7       0.027       0.192     0.25
Setup_H0               7       1.107       7.746    10.20
naefs                 14       0.000       0.001     0.00
MolMec                14       0.000       0.000     0.00
kinefsm               14       0.014       0.196     0.26
nlefsm                14       0.051       0.715     0.94
DHSCF_Init             7       0.979       6.850     9.02
DHSCF1                 7       0.055       0.386     0.51
INITMESH               7       0.000       0.000     0.00
DHSCF2                 7       0.923       6.464     8.51
REMESH                 7       0.019       0.132     0.17
REORD                202       0.012       2.335     3.07
PHION                  7       0.355       2.488     3.28
COMM_BSC             313       0.008       2.631     3.46
POISON                80       0.458      36.602    48.19
fft                  160       0.168      26.885    35.39
IterSCF               59       0.985      58.131    76.53
setup_H               66       0.880      58.067    76.44
DHSCF                 73       0.919      67.123    88.36
DHSCF3                73       0.871      63.607    83.74
rhoofd                73       0.051       3.751     4.94
XC                    73       0.115       8.412    11.07
GXC-CellXC            73       0.068       4.958     6.53
cellXC                73       0.068       4.957     6.53
vmat                  73       0.044       3.198     4.21
compute_dm            59       0.000       0.029     0.04
diagon                59       0.000       0.027     0.04
r-eigvec              59       0.000       0.023     0.03
r-buildHS             59       0.000       0.001     0.00
rdiag                 59       0.000       0.022     0.03
rdiag1                59       0.000       0.001     0.00
rdiag2                59       0.000       0.002     0.00
rdiag3                59       0.000       0.015     0.02
rdiag4                59       0.000       0.002     0.00
r-buildD              59       0.000       0.002     0.00
MIXER                 52       0.000       0.003     0.00
PostSCF                7       1.386       9.705    12.78
DHSCF4                 7       0.502       3.516     4.63
dfscf                  7       0.374       2.616     3.44
overfsm                7       0.001       0.004     0.00
state_analysis         7       0.001       0.004     0.01
siesta_move            7       0.000       0.003     0.00
Analysis               1       0.002       0.002     0.00
siesta_analysis        1       0.002       0.002     0.00
optical                1       0.000       0.000     0.00
  
>> End of run:  30-SEP-2022  23:30:49
Job completed
