Siesta Version  : v4.1.5-1-g384057250
Architecture    : unknown
Compiler version: ifort (IFORT) 2021.2.0 20210228
Compiler flags  : ifort -O2 -fPIC -fp-model source
PP flags        : -DFC_HAVE_ABORT -DSIESTA__DIAG_2STAGE -DSIESTA__MRRR
Libraries       : libsiestaLAPACK.a libsiestaBLAS.a
SERIAL version

* Running in serial mode
>> Start of run:   2-OCT-2022  20:20:48

                           ***********************       
                           *  WELCOME TO SIESTA  *       
                           ***********************       

reinit: Reading from C.fdf

reinit: -----------------------------------------------------------------------
reinit: System Name: Carbon
reinit: -----------------------------------------------------------------------
reinit: System Label: C
reinit: -----------------------------------------------------------------------

initatom: Reading input for the pseudopotentials and atomic orbitals ----------
Species number:   1 Atomic number:    6 Label: C
 
Ground state valence configuration:   2s02  2p02
Reading pseudopotential information in formatted form from C.psf

Valence configuration for pseudopotential generation:
2s( 2.00) rc: 1.25
2p( 2.00) rc: 1.25
3d( 0.00) rc: 1.25
4f( 0.00) rc: 1.25
For C, standard SIESTA heuristics set lmxkb to 3
 (one more than the basis l, including polarization orbitals).
Use PS.lmax or PS.KBprojectors blocks to override.

<basis_specs>
===============================================================================
C                    Z=   6    Mass=  12.010        Charge= 0.17977+309
Lmxo=1 Lmxkb= 3    BasisType=split      Semic=F
L=0  Nsemic=0  Cnfigmx=2
          i=1  nzeta=2  polorb=0  (2s)
            splnorm:   0.15000    
               vcte:    0.0000    
               rinn:    0.0000    
               qcoe:    0.0000    
               qyuk:    0.0000    
               qwid:   0.10000E-01
                rcs:    0.0000      0.0000    
            lambdas:    1.0000      1.0000    
L=1  Nsemic=0  Cnfigmx=2
          i=1  nzeta=2  polorb=1  (2p)
            splnorm:   0.15000    
               vcte:    0.0000    
               rinn:    0.0000    
               qcoe:    0.0000    
               qyuk:    0.0000    
               qwid:   0.10000E-01
                rcs:    0.0000      0.0000    
            lambdas:    1.0000      1.0000    
-------------------------------------------------------------------------------
L=0  Nkbl=1  erefs: 0.17977+309
L=1  Nkbl=1  erefs: 0.17977+309
L=2  Nkbl=1  erefs: 0.17977+309
L=3  Nkbl=1  erefs: 0.17977+309
===============================================================================
</basis_specs>

atom: Called for C                     (Z =   6)

read_vps: Pseudopotential generation method:
read_vps: ATM3      Troullier-Martins                       
Valence charge for ps generation:    4.00000

xc_check: Exchange-correlation functional:
xc_check: Ceperley-Alder
V l=0 = -2*Zval/r beyond r=  1.3951
V l=1 = -2*Zval/r beyond r=  1.3777
V l=2 = -2*Zval/r beyond r=  1.3777
V l=3 = -2*Zval/r beyond r=  1.3777
All V_l potentials equal beyond r=  1.2311
This should be close to max(r_c) in ps generation
All pots = -2*Zval/r beyond r=  1.3951

VLOCAL1: 99.0% of the norm of Vloc inside     28.641 Ry
VLOCAL1: 99.9% of the norm of Vloc inside     65.273 Ry
atom: Maximum radius for 4*pi*r*r*local-pseudopot. charge    1.48507
atom: Maximum radius for r*vlocal+2*Zval:    1.27815
GHOST: No ghost state for L =  0
GHOST: No ghost state for L =  1
GHOST: No ghost state for L =  2
GHOST: No ghost state for L =  3

KBgen: Kleinman-Bylander projectors: 
   l= 0   rc=  1.600766   el= -1.001946   Ekb=  7.816946   kbcos=  0.279978
   l= 1   rc=  1.620907   el= -0.398597   Ekb= -4.829535   kbcos= -0.287433
   l= 2   rc=  1.836783   el=  0.002326   Ekb= -1.327964   kbcos= -0.005365
   l= 3   rc=  1.979871   el=  0.003420   Ekb= -0.522285   kbcos= -0.000569

KBgen: Total number of Kleinman-Bylander projectors:   16
atom: -------------------------------------------------------------------------

atom: SANKEY-TYPE ORBITALS:
atom: Selected multiple-zeta basis: split     

SPLIT: Orbitals with angular momentum L= 0

SPLIT: Basis orbitals for state 2s

SPLIT: PAO cut-off radius determined from an
SPLIT: energy shift=  0.003675 Ry

   izeta = 1
                 lambda =    1.000000
                     rc =    5.120028
                 energy =   -0.998772
                kinetic =    0.858242
    potential(screened) =   -1.857014
       potential(ionic) =   -5.418547

   izeta = 2
                 rmatch =    3.518811
              splitnorm =    0.150000
                 energy =   -0.870182
                kinetic =    1.330004
    potential(screened) =   -2.200186
       potential(ionic) =   -6.017108

SPLIT: Orbitals with angular momentum L= 1

SPLIT: Basis orbitals for state 2p

SPLIT: PAO cut-off radius determined from an
SPLIT: energy shift=  0.003675 Ry

   izeta = 1
                 lambda =    1.000000
                     rc =    6.253707
                 energy =   -0.395142
                kinetic =    2.439321
    potential(screened) =   -2.834463
       potential(ionic) =   -6.264070

   izeta = 2
                 rmatch =    3.745781
              splitnorm =    0.150000
                 energy =   -0.266467
                kinetic =    3.655359
    potential(screened) =   -3.921826
       potential(ionic) =   -7.757575

POLgen: Perturbative polarization orbital with L=  2

POLgen: Polarization orbital for state 2p

   izeta = 1
                     rc =    6.253707
                 energy =    1.009535
                kinetic =    2.120051
    potential(screened) =   -1.110516
       potential(ionic) =   -3.842863
atom: Total number of Sankey-type orbitals: 13

atm_pop: Valence configuration (for local Pseudopot. screening):
 2s( 2.00)                                                            
 2p( 2.00)                                                            
Vna: chval, zval:    4.00000   4.00000

Vna:  Cut-off radius for the neutral-atom potential:   6.253707

atom: _________________________________________________________________________

prinput: Basis input ----------------------------------------------------------

PAO.BasisType split     

%block ChemicalSpeciesLabel
    1    6 C                       # Species index, atomic number, species label
%endblock ChemicalSpeciesLabel

%block PAO.Basis                 # Define Basis set
C                     2                    # Species label, number of l-shells
 n=2   0   2                         # n, l, Nzeta 
   5.120      3.519   
   1.000      1.000   
 n=2   1   2 P   1                   # n, l, Nzeta, Polarization, NzetaPol
   6.254      3.746   
   1.000      1.000   
%endblock PAO.Basis

prinput: ----------------------------------------------------------------------

coor:   Atomic-coordinates input format  =     Cartesian coordinates
coor:                                          (in Angstroms)

siesta: Atomic coordinates (Bohr) and species
siesta:      0.50838   0.00000   0.00000  1        1
siesta:      3.30612   0.00000   0.00000  1        2

siesta: System type = molecule  

initatomlists: Number of atoms, orbitals, and projectors:      2    26    32

siesta: ******************** Simulation parameters ****************************
siesta:
siesta: The following are some of the parameters of the simulation.
siesta: A complete list of the parameters used, including default values,
siesta: can be found in file out.fdf
siesta:
redata: Spin configuration                          = none
redata: Number of spin components                   = 1
redata: Time-Reversal Symmetry                      = T
redata: Spin spiral                                 = F
redata: Long output                                 =   F
redata: Number of Atomic Species                    =        1
redata: Charge density info will appear in .RHO file
redata: Write Mulliken Pop.                         = NO
redata: Matel table size (NRTAB)                    =     1024
redata: Mesh Cutoff                                 =   200.0000 Ry
redata: Net charge of the system                    =     0.0000 |e|
redata: Min. number of SCF Iter                     =        0
redata: Max. number of SCF Iter                     =      200
redata: SCF convergence failure will abort job
redata: SCF mix quantity                            = Hamiltonian
redata: Mix DM or H after convergence               =   F
redata: Recompute H after scf cycle                 =   F
redata: Mix DM in first SCF step                    =   T
redata: Write Pulay info on disk                    =   F
redata: New DM Occupancy tolerance                  = 0.000000000001
redata: No kicks to SCF
redata: DM Mixing Weight for Kicks                  =     0.5000
redata: Require Harris convergence for SCF          =   F
redata: Harris energy tolerance for SCF             =     0.000100 eV
redata: Require DM convergence for SCF              =   T
redata: DM tolerance for SCF                        =     0.000100
redata: Require EDM convergence for SCF             =   F
redata: EDM tolerance for SCF                       =     0.001000 eV
redata: Require H convergence for SCF               =   T
redata: Hamiltonian tolerance for SCF               =     0.001000 eV
redata: Require (free) Energy convergence for SCF   =   F
redata: (free) Energy tolerance for SCF             =     0.000100 eV
redata: Using Saved Data (generic)                  =   F
redata: Use continuation files for DM               =   F
redata: Neglect nonoverlap interactions             =   F
redata: Method of Calculation                       = Diagonalization
redata: Electronic Temperature                      =   299.9978 K
redata: Fix the spin of the system                  =   F
redata: Dynamics option                             = CG coord. optimization
redata: Variable cell                               =   F
redata: Use continuation files for CG               =   F
redata: Max atomic displ per move                   =     0.0529 Ang
redata: Maximum number of optimization moves        =      150
redata: Force tolerance                             =     0.0400 eV/Ang
mix.SCF: Pulay mixing                            = Pulay
mix.SCF:    Variant                              = stable
mix.SCF:    History steps                        = 5
mix.SCF:    Linear mixing weight                 =     0.100000
mix.SCF:    Mixing weight                        =     0.100000
mix.SCF:    SVD condition                        = 0.1000E-07
redata: ***********************************************************************

%block SCF.Mixers
  Pulay
%endblock SCF.Mixers

%block SCF.Mixer.Pulay
  # Mixing method
  method pulay
  variant stable

  # Mixing options
  weight 0.1000
  weight.linear 0.1000
  history 5
%endblock SCF.Mixer.Pulay
 
DM_history_depth set to one: no extrapolation allowed by default for geometry relaxation
Size of DM history Fstack: 1
Total number of electrons:     8.000000
Total ionic charge:     8.000000
 Kpoints in:            1 . Kpoints trimmed:            1

siesta: k-grid: Number of k-points =     1
siesta: k-grid: Cutoff (effective) =     8.500 Ang
siesta: k-grid: Supercell and displacements
siesta: k-grid:    1   0   0      0.000
siesta: k-grid:    0   1   0      0.000
siesta: k-grid:    0   0   1      0.000
 
diag: Algorithm                                     = D&C
diag: Used triangular part                          = Lower
diag: Absolute tolerance                            =  0.100E-15
diag: Orthogonalization factor                      =  0.100E-05
diag: Memory factor                                 =  1.0000
 
siesta: Constraints using custom constr routine
 
ts: **************************************************************
ts: Save H and S matrices                           =    F
ts: Save DM and EDM matrices                        =    F
ts: Only save the overlap matrix S                  =    F
ts: **************************************************************
 
************************ Begin: TS CHECKS AND WARNINGS ************************
************************ End: TS CHECKS AND WARNINGS **************************


                     ====================================
                        Begin CG opt. move =      0
                     ====================================

outcell: Unit cell vectors (Ang):
       17.000000    0.000000    0.000000
        0.000000   17.000000    0.000000
        0.000000    0.000000   17.000000

outcell: Cell vector modules (Ang)   :   17.000000   17.000000   17.000000
outcell: Cell angles (23,13,12) (deg):     90.0000     90.0000     90.0000
outcell: Cell volume (Ang**3)        :   4913.0000
<dSpData1D:S at geom step 0
  <sparsity:sparsity for geom step 0
    nrows_g=26 nrows=26 sparsity=1.0000 nnzs=676, refcount: 7>
  <dData1D:(new from dSpData1D) n=676, refcount: 1>
refcount: 1>
new_DM -- step:     1
Initializing Density Matrix...
DM filled with atomic data:
<dSpData2D:DM initialized from atoms
  <sparsity:sparsity for geom step 0
    nrows_g=26 nrows=26 sparsity=1.0000 nnzs=676, refcount: 8>
  <dData2D:DM n=676 m=1, refcount: 1>
refcount: 1>
No. of atoms with KB's overlaping orbs in proc 0. Max # of overlaps:       2      26
New grid distribution:   1
           1       1:   75    1:   75    1:   75

InitMesh: MESH =   150 x   150 x   150 =     3375000
InitMesh: (bp) =    75 x    75 x    75 =      421875
InitMesh: Mesh cutoff (required, used) =   200.000   215.172 Ry
ExtMesh (bp) on 0 =   135 x   135 x   135 =     2460375
PhiOnMesh: Number of (b)points on node 0 =               421875
PhiOnMesh: nlist on node 0 =               265066

stepf: Fermi-Dirac step function

siesta: Program's energy decomposition (eV):
siesta: Ebs     =       -83.969003
siesta: Eions   =       632.268963
siesta: Ena     =       222.268563
siesta: Ekin    =       184.721678
siesta: Enl     =         6.731131
siesta: Eso     =         0.000000
siesta: Edftu   =         0.000000
siesta: DEna    =        -0.081564
siesta: DUscf   =         0.512721
siesta: DUext   =         0.000000
siesta: Exc     =       -80.810433
siesta: eta*DQ  =         0.000000
siesta: Emadel  =         0.000000
siesta: Emeta   =         0.000000
siesta: Emolmec =         0.000000
siesta: Ekinion =         0.000000
siesta: Eharris =      -300.709296
siesta: Etot    =      -298.926868
siesta: FreeEng =      -298.988974

        iscf     Eharris(eV)        E_KS(eV)     FreeEng(eV)     dDmax    Ef(eV) dHmax(eV)
   scf:    1     -300.709296     -298.926868     -298.988974  1.154847 -7.938803  1.119609
timer: Routine,Calls,Time,% = IterSCF        1       1.726  44.31
   scf:    2     -298.829554     -299.103754     -299.202073  0.313708 -7.863344  0.896037
   scf:    3     -298.991764     -299.124707     -299.208598  0.179546 -7.792590  0.693204
   scf:    4     -299.123504     -299.161935     -299.257029  0.133116 -7.532629  0.071985
   scf:    5     -299.167463     -299.164845     -299.259391  0.007752 -7.528563  0.059024
   scf:    6     -299.168785     -299.166900     -299.260907  0.011637 -7.534798  0.065850
   scf:    7     -299.172495     -299.171516     -299.262966  0.028484 -7.497280  0.038181
   scf:    8     -299.170398     -299.171052     -299.263200  0.006712 -7.506523  0.004726
   scf:    9     -299.171043     -299.171047     -299.263201  0.000131 -7.508607  0.000151
   scf:   10     -299.171055     -299.171051     -299.263201  0.000043 -7.508586  0.000010

SCF Convergence by DM+H criterion
max |DM_out - DM_in|         :     0.0000434680
max |H_out - H_in|      (eV) :     0.0000097146
SCF cycle converged after 10 iterations

Using DM_out to compute the final energy and forces
No. of atoms with KB's overlaping orbs in proc 0. Max # of overlaps:       2      26

siesta: E_KS(eV) =             -299.1711

siesta: E_KS - E_eggbox =      -299.1711

siesta: Atomic forces (eV/Ang):
----------------------------------------
   Tot   -0.010417    0.000000   -0.000000
----------------------------------------
   Max    5.821738
   Res    3.358176    sqrt( Sum f_i^2 / 3N )
----------------------------------------
   Max    9.732945    constrained

Stress tensor Voigt[x,y,z,yz,xz,xy] (kbar):        2.81       -0.00       -0.00        0.00       -0.00        0.00
(Free)E + p*V (eV/cell)     -302.1370
Target enthalpy (eV/cell)     -299.2632

                     ====================================
                        Begin CG opt. move =      1
                     ====================================

outcell: Unit cell vectors (Ang):
       17.000000    0.000000    0.000000
        0.000000   17.000000    0.000000
        0.000000    0.000000   17.000000

outcell: Cell vector modules (Ang)   :   17.000000   17.000000   17.000000
outcell: Cell angles (23,13,12) (deg):     90.0000     90.0000     90.0000
outcell: Cell volume (Ang**3)        :   4913.0000
<dSpData1D:S at geom step 1
  <sparsity:sparsity for geom step 1
    nrows_g=26 nrows=26 sparsity=1.0000 nnzs=676, refcount: 7>
  <dData1D:(new from dSpData1D) n=676, refcount: 1>
refcount: 1>
new_DM -- step:     2
Re-using DM from previous geometries...
Number of DMs in history: 1
 DM extrapolation coefficients: 
1   1.00000
New DM after history re-use:
<dSpData2D:SpM extrapolated using coords
  <sparsity:sparsity for geom step 1
    nrows_g=26 nrows=26 sparsity=1.0000 nnzs=676, refcount: 9>
  <dData2D:(temp array for extrapolation) n=676 m=1, refcount: 1>
refcount: 1>
Note: For starting DM, Qtot, Tr[D*S] =          8.00000000          8.11431512
No. of atoms with KB's overlaping orbs in proc 0. Max # of overlaps:       2      26
New grid distribution:   1
           1       1:   75    1:   75    1:   75

InitMesh: MESH =   150 x   150 x   150 =     3375000
InitMesh: (bp) =    75 x    75 x    75 =      421875
InitMesh: Mesh cutoff (required, used) =   200.000   215.172 Ry
ExtMesh (bp) on 0 =   135 x   135 x   135 =     2460375
PhiOnMesh: Number of (b)points on node 0 =               421875
PhiOnMesh: nlist on node 0 =               265129

        iscf     Eharris(eV)        E_KS(eV)     FreeEng(eV)     dDmax    Ef(eV) dHmax(eV)
   scf:    1     -298.380377     -299.294055     -299.307233  0.417335 -7.808837  0.997260
   scf:    2     -293.194997     -297.879363     -297.951040  0.756510 -7.132754  2.756133
   scf:    3     -299.082876     -298.512347     -298.593843  0.066750 -7.673463  1.584743
   scf:    4     -297.633070     -298.088895     -298.160572  0.027958 -7.371861  2.325715
   scf:    5     -297.303123     -299.233414     -299.235334  0.772304 -7.653200  1.109562
   scf:    6     -299.230915     -299.232161     -299.233996  0.000252 -7.652491  1.113516
   scf:    7     -299.168825     -299.200774     -299.201385  0.006606 -7.661321  1.218629
   scf:    8     -299.274438     -299.237988     -299.240350  0.007807 -7.636095  1.102959
   scf:    9     -299.642328     -299.568421     -299.641887  0.244649 -7.590724  0.155588
   scf:   10     -298.547795     -299.196772     -299.197197  0.250906 -7.651280  1.214424
   scf:   11     -299.212201     -299.204500     -299.205097  0.001250 -7.653034  1.190437
   scf:   12     -294.495161     -298.332490     -298.405241  0.792664 -7.621046  1.732610
   scf:   13     -298.894827     -299.515867     -299.571851  0.630292 -7.631069  0.410656
   scf:   14     -299.343447     -299.528998     -299.620143  0.217791 -7.643825  0.273920
   scf:   15     -298.904100     -299.403104     -299.434534  0.302755 -7.647363  0.704473
   scf:   16     -299.597409     -299.571249     -299.647644  0.185546 -7.651715  0.097663
   scf:   17     -299.570726     -299.570994     -299.647181  0.001673 -7.660429  0.106036
   scf:   18     -299.566412     -299.571097     -299.652493  0.034004 -7.663774  0.004483
   scf:   19     -299.568200     -299.569767     -299.652247  0.007659 -7.668055  0.021884
   scf:   20     -299.558383     -299.564736     -299.649574  0.018059 -7.669418  0.078135
   scf:   21     -299.574689     -299.571226     -299.652484  0.026634 -7.666111  0.004444
   scf:   22     -299.570834     -299.571034     -299.652494  0.001428 -7.666520  0.000152
   scf:   23     -299.570949     -299.570991     -299.652494  0.000315 -7.666604  0.000778
   scf:   24     -299.571067     -299.571029     -299.652494  0.000261 -7.666516  0.000009
   scf:   25     -299.571028     -299.571029     -299.652494  0.000004 -7.666517  0.000004

SCF Convergence by DM+H criterion
max |DM_out - DM_in|         :     0.0000036879
max |H_out - H_in|      (eV) :     0.0000043338
SCF cycle converged after 25 iterations

Using DM_out to compute the final energy and forces
No. of atoms with KB's overlaping orbs in proc 0. Max # of overlaps:       2      26

siesta: E_KS(eV) =             -299.5710

siesta: Atomic forces (eV/Ang):
----------------------------------------
   Tot    0.004742    0.000000   -0.000000
----------------------------------------
   Max    4.428927
   Res    2.555674    sqrt( Sum f_i^2 / 3N )
----------------------------------------
   Max    4.704015    constrained

Stress tensor Voigt[x,y,z,yz,xz,xy] (kbar):        2.03       -0.00       -0.00       -0.00        0.00       -0.00
(Free)E + p*V (eV/cell)     -301.7259
Target enthalpy (eV/cell)     -299.6525

                     ====================================
                        Begin CG opt. move =      2
                     ====================================

outcell: Unit cell vectors (Ang):
       17.000000    0.000000    0.000000
        0.000000   17.000000    0.000000
        0.000000    0.000000   17.000000

outcell: Cell vector modules (Ang)   :   17.000000   17.000000   17.000000
outcell: Cell angles (23,13,12) (deg):     90.0000     90.0000     90.0000
outcell: Cell volume (Ang**3)        :   4913.0000
<dSpData1D:S at geom step 2
  <sparsity:sparsity for geom step 2
    nrows_g=26 nrows=26 sparsity=1.0000 nnzs=676, refcount: 7>
  <dData1D:(new from dSpData1D) n=676, refcount: 1>
refcount: 1>
new_DM -- step:     3
Re-using DM from previous geometries...
Number of DMs in history: 1
 DM extrapolation coefficients: 
1   1.00000
New DM after history re-use:
<dSpData2D:SpM extrapolated using coords
  <sparsity:sparsity for geom step 2
    nrows_g=26 nrows=26 sparsity=1.0000 nnzs=676, refcount: 9>
  <dData2D:(temp array for extrapolation) n=676 m=1, refcount: 1>
refcount: 1>
Note: For starting DM, Qtot, Tr[D*S] =          8.00000000          8.17771760
No. of atoms with KB's overlaping orbs in proc 0. Max # of overlaps:       2      26
New grid distribution:   1
           1       1:   75    1:   75    1:   75

InitMesh: MESH =   150 x   150 x   150 =     3375000
InitMesh: (bp) =    75 x    75 x    75 =      421875
InitMesh: Mesh cutoff (required, used) =   200.000   215.172 Ry
ExtMesh (bp) on 0 =   135 x   135 x   135 =     2460375
PhiOnMesh: Number of (b)points on node 0 =               421875
PhiOnMesh: nlist on node 0 =               265080

        iscf     Eharris(eV)        E_KS(eV)     FreeEng(eV)     dDmax    Ef(eV) dHmax(eV)
   scf:    1     -299.093227     -299.747767     -299.748501  0.383753 -8.174068  1.031873
   scf:    2     -291.689931     -297.471618     -297.543295  0.875998 -7.301409  2.952436
   scf:    3     -299.484521     -299.862080     -299.889138  0.792447 -7.952046  0.347661
   scf:    4     -299.376520     -299.744734     -299.826719  0.252406 -7.860354  0.535454
   scf:    5     -299.857722     -299.879813     -299.922275  0.200280 -7.898270  0.143776
   scf:    6     -299.881196     -299.880747     -299.926039  0.012849 -7.856569  0.105917
   scf:    7     -299.880573     -299.880662     -299.926108  0.000579 -7.862874  0.110661
   scf:    8     -299.879789     -299.880511     -299.929161  0.011953 -7.864287  0.072123
   scf:    9     -299.880496     -299.880503     -299.929220  0.000326 -7.863178  0.070582
   scf:   10     -299.869850     -299.876419     -299.931422  0.025129 -7.868701  0.008819
   scf:   11     -299.877939     -299.877198     -299.931454  0.003137 -7.868387  0.001209
   scf:   12     -299.877008     -299.877103     -299.931455  0.000397 -7.868433  0.000062
   scf:   13     -299.877160     -299.877132     -299.931455  0.000131 -7.868424  0.000323
   scf:   14     -299.877084     -299.877108     -299.931455  0.000098 -7.868436  0.000008

SCF Convergence by DM+H criterion
max |DM_out - DM_in|         :     0.0000984528
max |H_out - H_in|      (eV) :     0.0000075611
SCF cycle converged after 14 iterations

Using DM_out to compute the final energy and forces
No. of atoms with KB's overlaping orbs in proc 0. Max # of overlaps:       2      26

siesta: E_KS(eV) =             -299.8771

siesta: Atomic forces (eV/Ang):
----------------------------------------
   Tot    0.000037   -0.000000    0.000000
----------------------------------------
   Max    0.344070
   Res    0.198638    sqrt( Sum f_i^2 / 3N )
----------------------------------------
   Max    4.520377    constrained

Stress tensor Voigt[x,y,z,yz,xz,xy] (kbar):        0.15        0.00        0.00        0.00        0.00       -0.00
(Free)E + p*V (eV/cell)     -300.0802
Target enthalpy (eV/cell)     -299.9315

                     ====================================
                        Begin CG opt. move =      3
                     ====================================

outcell: Unit cell vectors (Ang):
       17.000000    0.000000    0.000000
        0.000000   17.000000    0.000000
        0.000000    0.000000   17.000000

outcell: Cell vector modules (Ang)   :   17.000000   17.000000   17.000000
outcell: Cell angles (23,13,12) (deg):     90.0000     90.0000     90.0000
outcell: Cell volume (Ang**3)        :   4913.0000
<dSpData1D:S at geom step 3
  <sparsity:sparsity for geom step 3
    nrows_g=26 nrows=26 sparsity=1.0000 nnzs=676, refcount: 7>
  <dData1D:(new from dSpData1D) n=676, refcount: 1>
refcount: 1>
new_DM -- step:     4
Re-using DM from previous geometries...
Number of DMs in history: 1
 DM extrapolation coefficients: 
1   1.00000
New DM after history re-use:
<dSpData2D:SpM extrapolated using coords
  <sparsity:sparsity for geom step 3
    nrows_g=26 nrows=26 sparsity=1.0000 nnzs=676, refcount: 9>
  <dData2D:(temp array for extrapolation) n=676 m=1, refcount: 1>
refcount: 1>
Note: For starting DM, Qtot, Tr[D*S] =          8.00000000          7.90172626
No. of atoms with KB's overlaping orbs in proc 0. Max # of overlaps:       2      26
New grid distribution:   1
           1       1:   75    1:   75    1:   75

InitMesh: MESH =   150 x   150 x   150 =     3375000
InitMesh: (bp) =    75 x    75 x    75 =      421875
InitMesh: Mesh cutoff (required, used) =   200.000   215.172 Ry
ExtMesh (bp) on 0 =   135 x   135 x   135 =     2460375
PhiOnMesh: Number of (b)points on node 0 =               421875
PhiOnMesh: nlist on node 0 =               265077

        iscf     Eharris(eV)        E_KS(eV)     FreeEng(eV)     dDmax    Ef(eV) dHmax(eV)
   scf:    1     -295.656015     -298.405553     -298.489557  0.660423 -7.587340  1.863482
   scf:    2     -294.702107     -298.502589     -298.502589  0.905307 -7.964028  3.329496
   scf:    3     -300.285619     -299.467096     -299.467102  0.093330 -7.709799  1.385707
   scf:    4     -299.630091     -299.550546     -299.550765  0.016176 -7.686790  1.081326
   scf:    5     -299.771629     -299.668792     -299.687874  0.047521 -7.763367  0.670255
   scf:    6     -294.722466     -298.373185     -298.455567  0.740474 -7.729633  1.808975
   scf:    7     -298.354333     -298.363767     -298.445845  0.001763 -7.726207  1.819169
   scf:    8     -297.179618     -297.793091     -297.864768  0.063019 -7.558967  2.570013
   scf:    9     -299.256746     -299.748572     -299.791695  0.673956 -7.736360  0.348089
   scf:   10     -299.685300     -299.764445     -299.840958  0.154828 -7.740805  0.144570
   scf:   11     -299.581487     -299.732470     -299.769850  0.174720 -7.743075  0.425214
   scf:   12     -299.692093     -299.713050     -299.743783  0.020144 -7.738833  0.492572
   scf:   13     -299.795243     -299.761168     -299.809715  0.060052 -7.734100  0.282391
   scf:   14     -299.750496     -299.755973     -299.802613  0.009741 -7.760539  0.324015
   scf:   15     -299.590048     -299.684272     -299.706160  0.075574 -7.744231  0.586732
   scf:   16     -299.204416     -299.660723     -299.750917  0.326059 -7.779596  0.466132
   scf:   17     -299.283412     -299.683513     -299.705045  0.326176 -7.739593  0.586944
   scf:   18     -299.710145     -299.697061     -299.722772  0.010895 -7.744221  0.545058
   scf:   19     -299.678512     -299.687907     -299.710792  0.007484 -7.741896  0.573739
   scf:   20     -299.807434     -299.777270     -299.836163  0.121877 -7.764753  0.164116
   scf:   21     -299.712889     -299.751327     -299.795907  0.056377 -7.755588  0.344898
   scf:   22     -299.710696     -299.769513     -299.844426  0.138788 -7.775012  0.094568
   scf:   23     -299.759416     -299.777541     -299.836730  0.081010 -7.765822  0.160697
   scf:   24     -299.732144     -299.768694     -299.843942  0.083316 -7.777342  0.098189
   scf:   25     -299.584759     -299.693859     -299.781494  0.091561 -7.786564  0.383878
   scf:   26     -299.763567     -299.779997     -299.842502  0.159499 -7.769534  0.114701
   scf:   27     -299.768611     -299.777655     -299.848216  0.040842 -7.774292  0.013318
   scf:   28     -299.779843     -299.778810     -299.848284  0.005778 -7.771889  0.004554
   scf:   29     -299.781229     -299.780268     -299.847596  0.011141 -7.770016  0.039052
   scf:   30     -299.777923     -299.779248     -299.848225  0.008636 -7.772029  0.012059
   scf:   31     -299.778250     -299.778766     -299.848287  0.003073 -7.772591  0.003245
   scf:   32     -299.778374     -299.778572     -299.848292  0.001076 -7.772768  0.000067
   scf:   33     -299.778598     -299.778585     -299.848292  0.000081 -7.772730  0.000154

SCF Convergence by DM+H criterion
max |DM_out - DM_in|         :     0.0000807919
max |H_out - H_in|      (eV) :     0.0001538674
SCF cycle converged after 33 iterations

Using DM_out to compute the final energy and forces
No. of atoms with KB's overlaping orbs in proc 0. Max # of overlaps:       2      26

siesta: E_KS(eV) =             -299.7786

siesta: Atomic forces (eV/Ang):
----------------------------------------
   Tot    0.001187    0.000000   -0.000000
----------------------------------------
   Max    2.730986
   Res    1.576393    sqrt( Sum f_i^2 / 3N )
----------------------------------------
   Max    0.385809    constrained

Stress tensor Voigt[x,y,z,yz,xz,xy] (kbar):        1.20        0.00        0.00        0.00        0.00       -0.00
(Free)E + p*V (eV/cell)     -301.0780
Target enthalpy (eV/cell)     -299.8483

cgvc: Finished line minimization    1.  Mean atomic displacement =    0.0952

                     ====================================
                        Begin CG opt. move =      4
                     ====================================

outcell: Unit cell vectors (Ang):
       17.000000    0.000000    0.000000
        0.000000   17.000000    0.000000
        0.000000    0.000000   17.000000

outcell: Cell vector modules (Ang)   :   17.000000   17.000000   17.000000
outcell: Cell angles (23,13,12) (deg):     90.0000     90.0000     90.0000
outcell: Cell volume (Ang**3)        :   4913.0000
<dSpData1D:S at geom step 4
  <sparsity:sparsity for geom step 4
    nrows_g=26 nrows=26 sparsity=1.0000 nnzs=676, refcount: 7>
  <dData1D:(new from dSpData1D) n=676, refcount: 1>
refcount: 1>
new_DM -- step:     5
Re-using DM from previous geometries...
Number of DMs in history: 1
 DM extrapolation coefficients: 
1   1.00000
New DM after history re-use:
<dSpData2D:SpM extrapolated using coords
  <sparsity:sparsity for geom step 4
    nrows_g=26 nrows=26 sparsity=1.0000 nnzs=676, refcount: 9>
  <dData2D:(temp array for extrapolation) n=676 m=1, refcount: 1>
refcount: 1>
Note: For starting DM, Qtot, Tr[D*S] =          8.00000000          8.17967654
No. of atoms with KB's overlaping orbs in proc 0. Max # of overlaps:       2      26
New grid distribution:   1
           1       1:   75    1:   75    1:   75

InitMesh: MESH =   150 x   150 x   150 =     3375000
InitMesh: (bp) =    75 x    75 x    75 =      421875
InitMesh: Mesh cutoff (required, used) =   200.000   215.172 Ry
ExtMesh (bp) on 0 =   135 x   135 x   135 =     2460375
PhiOnMesh: Number of (b)points on node 0 =               421875
PhiOnMesh: nlist on node 0 =               265099

        iscf     Eharris(eV)        E_KS(eV)     FreeEng(eV)     dDmax    Ef(eV) dHmax(eV)
   scf:    1     -299.335491     -299.764540     -299.764827  0.310068 -8.308128  1.072740
   scf:    2     -290.856350     -297.044824     -297.116555  0.903483 -7.462388  2.957549
   scf:    3     -299.512301     -299.826859     -299.831159  0.874084 -8.071138  0.461011
   scf:    4     -299.852864     -299.846717     -299.869336  0.053006 -7.936484  0.096256
   scf:    5     -299.844836     -299.845914     -299.871890  0.007693 -7.959866  0.084460
   scf:    6     -297.029785     -298.896864     -298.995244  0.477371 -7.941652  1.441659
   scf:    7     -294.479499     -296.953355     -297.025032  0.299272 -7.679168  2.970930
   scf:    8     -299.363031     -299.809363     -299.809621  0.848874 -7.977394  0.591560
   scf:    9     -299.823902     -299.816722     -299.817253  0.004103 -7.952606  0.531437
   scf:   10     -299.850273     -299.834260     -299.838840  0.014353 -7.950003  0.362826
   scf:   11     -298.316425     -299.376772     -299.467509  0.387400 -7.947162  0.983495
   scf:   12     -299.895004     -299.671919     -299.746041  0.134241 -7.947848  0.559472
   scf:   13     -299.899846     -299.813671     -299.863408  0.119641 -7.947863  0.176129
   scf:   14     -299.857582     -299.842737     -299.875107  0.060853 -7.948120  0.030434
   scf:   15     -299.843951     -299.843355     -299.874817  0.002801 -7.948296  0.040622
   scf:   16     -299.843513     -299.843434     -299.874773  0.000382 -7.948423  0.042066
   scf:   17     -299.846614     -299.845252     -299.872868  0.011045 -7.948154  0.081922
   scf:   18     -299.807686     -299.830709     -299.872997  0.046909 -7.954201  0.079574
   scf:   19     -299.849811     -299.841957     -299.875320  0.029727 -7.952823  0.022024
   scf:   20     -299.835486     -299.838913     -299.875436  0.010110 -7.953344  0.012994
   scf:   21     -299.840959     -299.839959     -299.875508  0.003163 -7.953237  0.002053
   scf:   22     -299.841072     -299.840522     -299.875502  0.001821 -7.953152  0.004368
   scf:   23     -299.839810     -299.840168     -299.875509  0.001157 -7.953226  0.000354
   scf:   24     -299.840111     -299.840140     -299.875509  0.000092 -7.953241  0.000052

SCF Convergence by DM+H criterion
max |DM_out - DM_in|         :     0.0000920670
max |H_out - H_in|      (eV) :     0.0000517704
SCF cycle converged after 24 iterations

Using DM_out to compute the final energy and forces
No. of atoms with KB's overlaping orbs in proc 0. Max # of overlaps:       2      26

siesta: E_KS(eV) =             -299.8401

siesta: Atomic forces (eV/Ang):
----------------------------------------
   Tot   -0.001767   -0.000000    0.000000
----------------------------------------
   Max    2.798761
   Res    1.615355    sqrt( Sum f_i^2 / 3N )
----------------------------------------
   Max   10.032506    constrained

Stress tensor Voigt[x,y,z,yz,xz,xy] (kbar):       -1.14        0.00        0.00        0.00        0.00       -0.00
(Free)E + p*V (eV/cell)     -298.7096
Target enthalpy (eV/cell)     -299.8755

                     ====================================
                        Begin CG opt. move =      5
                     ====================================

outcell: Unit cell vectors (Ang):
       17.000000    0.000000    0.000000
        0.000000   17.000000    0.000000
        0.000000    0.000000   17.000000

outcell: Cell vector modules (Ang)   :   17.000000   17.000000   17.000000
outcell: Cell angles (23,13,12) (deg):     90.0000     90.0000     90.0000
outcell: Cell volume (Ang**3)        :   4913.0000
<dSpData1D:S at geom step 5
  <sparsity:sparsity for geom step 5
    nrows_g=26 nrows=26 sparsity=1.0000 nnzs=676, refcount: 7>
  <dData1D:(new from dSpData1D) n=676, refcount: 1>
refcount: 1>
new_DM -- step:     6
Re-using DM from previous geometries...
Number of DMs in history: 1
 DM extrapolation coefficients: 
1   1.00000
New DM after history re-use:
<dSpData2D:SpM extrapolated using coords
  <sparsity:sparsity for geom step 5
    nrows_g=26 nrows=26 sparsity=1.0000 nnzs=676, refcount: 9>
  <dData2D:(temp array for extrapolation) n=676 m=1, refcount: 1>
refcount: 1>
Note: For starting DM, Qtot, Tr[D*S] =          8.00000000          7.80807997
No. of atoms with KB's overlaping orbs in proc 0. Max # of overlaps:       2      26
New grid distribution:   1
           1       1:   75    1:   75    1:   75

InitMesh: MESH =   150 x   150 x   150 =     3375000
InitMesh: (bp) =    75 x    75 x    75 =      421875
InitMesh: Mesh cutoff (required, used) =   200.000   215.172 Ry
ExtMesh (bp) on 0 =   135 x   135 x   135 =     2460375
PhiOnMesh: Number of (b)points on node 0 =               421875
PhiOnMesh: nlist on node 0 =               265118

        iscf     Eharris(eV)        E_KS(eV)     FreeEng(eV)     dDmax    Ef(eV) dHmax(eV)
   scf:    1     -294.338589     -298.027967     -298.099873  0.818504 -7.362854  2.301994
   scf:    2     -293.704024     -298.243237     -298.243237  0.991737 -7.766534  3.726681
   scf:    3     -300.487403     -299.468388     -299.468390  0.112449 -7.664292  1.426443
   scf:    4     -299.540114     -299.504565     -299.504573  0.006486 -7.650854  1.304822
   scf:    5     -299.795561     -299.658825     -299.669862  0.039234 -7.765494  0.739860
   scf:    6     -294.687020     -298.390544     -298.474192  0.755284 -7.719814  1.818120
   scf:    7     -299.579677     -299.035058     -299.132519  0.147906 -7.738392  1.306180
   scf:    8     -300.017133     -299.646632     -299.737782  0.238999 -7.752105  0.533906
   scf:    9     -299.768022     -299.712295     -299.798479  0.048027 -7.745994  0.376503
   scf:   10     -298.732889     -299.309034     -299.407694  0.203127 -7.747941  1.016501
   scf:   11     -299.796585     -299.580886     -299.675083  0.115596 -7.747628  0.652625
   scf:   12     -299.820798     -299.790498     -299.857980  0.211431 -7.754146  0.043829
   scf:   13     -299.779305     -299.785791     -299.857167  0.021163 -7.751782  0.054020
   scf:   14     -299.790765     -299.791656     -299.855086  0.041847 -7.763611  0.078292
   scf:   15     -299.787194     -299.790315     -299.858049  0.020857 -7.781090  0.017104
   scf:   16     -299.782169     -299.786797     -299.857635  0.016692 -7.782753  0.034144
   scf:   17     -299.791839     -299.789614     -299.858172  0.012239 -7.779638  0.003403
   scf:   18     -299.789235     -299.789427     -299.858176  0.001022 -7.779814  0.000259
   scf:   19     -299.789283     -299.789355     -299.858176  0.000467 -7.779863  0.001051
   scf:   20     -299.789484     -299.789420     -299.858176  0.000340 -7.779802  0.000007
   scf:   21     -299.789419     -299.789419     -299.858176  0.000003 -7.779801  0.000003

SCF Convergence by DM+H criterion
max |DM_out - DM_in|         :     0.0000026486
max |H_out - H_in|      (eV) :     0.0000034832
SCF cycle converged after 21 iterations

Using DM_out to compute the final energy and forces
No. of atoms with KB's overlaping orbs in proc 0. Max # of overlaps:       2      26

siesta: E_KS(eV) =             -299.7894

siesta: Atomic forces (eV/Ang):
----------------------------------------
   Tot    0.001432   -0.000000    0.000000
----------------------------------------
   Max    2.587242
   Res    1.493331    sqrt( Sum f_i^2 / 3N )
----------------------------------------
   Max    0.061272    constrained

Stress tensor Voigt[x,y,z,yz,xz,xy] (kbar):        1.14        0.00        0.00       -0.00       -0.00        0.00
(Free)E + p*V (eV/cell)     -301.0202
Target enthalpy (eV/cell)     -299.8582

cgvc: Finished line minimization    2.  Mean atomic displacement =    0.0035

                     ====================================
                        Begin CG opt. move =      6
                     ====================================

outcell: Unit cell vectors (Ang):
       17.000000    0.000000    0.000000
        0.000000   17.000000    0.000000
        0.000000    0.000000   17.000000

outcell: Cell vector modules (Ang)   :   17.000000   17.000000   17.000000
outcell: Cell angles (23,13,12) (deg):     90.0000     90.0000     90.0000
outcell: Cell volume (Ang**3)        :   4913.0000
<dSpData1D:S at geom step 6
  <sparsity:sparsity for geom step 6
    nrows_g=26 nrows=26 sparsity=1.0000 nnzs=676, refcount: 7>
  <dData1D:(new from dSpData1D) n=676, refcount: 1>
refcount: 1>
new_DM -- step:     7
Re-using DM from previous geometries...
Number of DMs in history: 1
 DM extrapolation coefficients: 
1   1.00000
New DM after history re-use:
<dSpData2D:SpM extrapolated using coords
  <sparsity:sparsity for geom step 6
    nrows_g=26 nrows=26 sparsity=1.0000 nnzs=676, refcount: 9>
  <dData2D:(temp array for extrapolation) n=676 m=1, refcount: 1>
refcount: 1>
No. of atoms with KB's overlaping orbs in proc 0. Max # of overlaps:       2      26
New grid distribution:   1
           1       1:   75    1:   75    1:   75

InitMesh: MESH =   150 x   150 x   150 =     3375000
InitMesh: (bp) =    75 x    75 x    75 =      421875
InitMesh: Mesh cutoff (required, used) =   200.000   215.172 Ry
ExtMesh (bp) on 0 =   135 x   135 x   135 =     2460375
PhiOnMesh: Number of (b)points on node 0 =               421875
PhiOnMesh: nlist on node 0 =               265166

        iscf     Eharris(eV)        E_KS(eV)     FreeEng(eV)     dDmax    Ef(eV) dHmax(eV)
   scf:    1     -299.789841     -299.801722     -299.863460  0.037897 -7.797922  0.103393
   scf:    2     -297.362838     -299.001628     -299.098856  0.446736 -7.759762  1.349883
   scf:    3     -299.848350     -299.801272     -299.866981  0.427136 -7.793602  0.037804
   scf:    4     -299.794308     -299.798385     -299.867348  0.017304 -7.788587  0.019934
   scf:    5     -299.801804     -299.800261     -299.867486  0.008943 -7.786406  0.008866
   scf:    6     -299.800004     -299.800134     -299.867503  0.000747 -7.786390  0.006443
   scf:    7     -299.799493     -299.799819     -299.867521  0.001719 -7.786643  0.001115
   scf:    8     -299.799689     -299.799754     -299.867522  0.000332 -7.786817  0.000165
   scf:    9     -299.799735     -299.799745     -299.867522  0.000052 -7.786842  0.000020

SCF Convergence by DM+H criterion
max |DM_out - DM_in|         :     0.0000524536
max |H_out - H_in|      (eV) :     0.0000197957
SCF cycle converged after 9 iterations

Using DM_out to compute the final energy and forces
No. of atoms with KB's overlaping orbs in proc 0. Max # of overlaps:       2      26

siesta: E_KS(eV) =             -299.7997

siesta: Atomic forces (eV/Ang):
----------------------------------------
   Tot   -0.001188    0.000000   -0.000000
----------------------------------------
   Max    2.438272
   Res    1.407394    sqrt( Sum f_i^2 / 3N )
----------------------------------------
   Max    0.269912    constrained

Stress tensor Voigt[x,y,z,yz,xz,xy] (kbar):        1.07        0.00        0.00        0.00        0.00       -0.00
(Free)E + p*V (eV/cell)     -300.9588
Target enthalpy (eV/cell)     -299.8675

                     ====================================
                        Begin CG opt. move =      7
                     ====================================

outcell: Unit cell vectors (Ang):
       17.000000    0.000000    0.000000
        0.000000   17.000000    0.000000
        0.000000    0.000000   17.000000

outcell: Cell vector modules (Ang)   :   17.000000   17.000000   17.000000
outcell: Cell angles (23,13,12) (deg):     90.0000     90.0000     90.0000
outcell: Cell volume (Ang**3)        :   4913.0000
<dSpData1D:S at geom step 7
  <sparsity:sparsity for geom step 7
    nrows_g=26 nrows=26 sparsity=1.0000 nnzs=676, refcount: 7>
  <dData1D:(new from dSpData1D) n=676, refcount: 1>
refcount: 1>
new_DM -- step:     8
Re-using DM from previous geometries...
Number of DMs in history: 1
 DM extrapolation coefficients: 
1   1.00000
New DM after history re-use:
<dSpData2D:SpM extrapolated using coords
  <sparsity:sparsity for geom step 7
    nrows_g=26 nrows=26 sparsity=1.0000 nnzs=676, refcount: 9>
  <dData2D:(temp array for extrapolation) n=676 m=1, refcount: 1>
refcount: 1>
No. of atoms with KB's overlaping orbs in proc 0. Max # of overlaps:       2      26
New grid distribution:   1
           1       1:   75    1:   75    1:   75

InitMesh: MESH =   150 x   150 x   150 =     3375000
InitMesh: (bp) =    75 x    75 x    75 =      421875
InitMesh: Mesh cutoff (required, used) =   200.000   215.172 Ry
ExtMesh (bp) on 0 =   135 x   135 x   135 =     2460375
PhiOnMesh: Number of (b)points on node 0 =               421875
PhiOnMesh: nlist on node 0 =               265146

        iscf     Eharris(eV)        E_KS(eV)     FreeEng(eV)     dDmax    Ef(eV) dHmax(eV)
   scf:    1     -299.779198     -299.783220     -299.856666  0.033816 -7.771996  0.092830
   scf:    2     -299.476823     -299.706294     -299.730198  0.197655 -7.796287  0.594711
   scf:    3     -299.786411     -299.793342     -299.858797  0.153952 -7.776258  0.049623
   scf:    4     -299.789584     -299.792527     -299.853132  0.023264 -7.776847  0.125799
   scf:    5     -299.786268     -299.791964     -299.859883  0.035431 -7.781363  0.011568
   scf:    6     -299.790041     -299.791045     -299.859910  0.005027 -7.781149  0.004804
   scf:    7     -299.791247     -299.791155     -299.859932  0.000468 -7.781135  0.003326
   scf:    8     -299.791565     -299.791362     -299.859937  0.001074 -7.781100  0.000079
   scf:    9     -299.791351     -299.791357     -299.859937  0.000031 -7.781102  0.000032

SCF Convergence by DM+H criterion
max |DM_out - DM_in|         :     0.0000308357
max |H_out - H_in|      (eV) :     0.0000315230
SCF cycle converged after 9 iterations

Using DM_out to compute the final energy and forces
No. of atoms with KB's overlaping orbs in proc 0. Max # of overlaps:       2      26

siesta: E_KS(eV) =             -299.7914

siesta: Atomic forces (eV/Ang):
----------------------------------------
   Tot    0.001391   -0.000000   -0.000000
----------------------------------------
   Max    2.560404
   Res    1.477849    sqrt( Sum f_i^2 / 3N )
----------------------------------------
   Max    0.001200    constrained

Stress tensor Voigt[x,y,z,yz,xz,xy] (kbar):        1.12        0.00        0.00        0.00       -0.00        0.00
(Free)E + p*V (eV/cell)     -301.0094
Target enthalpy (eV/cell)     -299.8599

outcoor: Relaxed atomic coordinates (Ang):                  
    0.33567409    0.00000000    0.00000000   1       1  C
    1.68300172    0.00000000    0.00000000   1       2  C

siesta: Program's energy decomposition (eV):
siesta: Ebs     =       -90.180767
siesta: Eions   =       632.268963
siesta: Ena     =       221.206048
siesta: Ekin    =       189.664632
siesta: Enl     =         5.754281
siesta: Eso     =         0.000000
siesta: Edftu   =         0.000000
siesta: DEna    =        -2.203874
siesta: DUscf   =         0.276042
siesta: DUext   =         0.000000
siesta: Exc     =       -82.219523
siesta: eta*DQ  =         0.000000
siesta: Emadel  =         0.000000
siesta: Emeta   =         0.000000
siesta: Emolmec =         0.000000
siesta: Ekinion =         0.000000
siesta: Eharris =      -299.791351
siesta: Etot    =      -299.791357
siesta: FreeEng =      -299.859937

siesta: Final energy (eV):
siesta:  Band Struct. =     -90.180767
siesta:       Kinetic =     189.664632
siesta:       Hartree =     329.455828
siesta:       Edftu   =       0.000000
siesta:       Eso     =       0.000000
siesta:    Ext. field =       0.000000
siesta:   Exch.-corr. =     -82.219523
siesta:  Ion-electron =    -831.340833
siesta:       Ion-ion =      94.648539
siesta:       Ekinion =       0.000000
siesta:         Total =    -299.791357
siesta:         Fermi =      -7.781102

siesta: Atomic forces (eV/Ang):
siesta:      1    2.560404   -0.000000   -0.000000
siesta:      2   -2.559013   -0.000000   -0.000000
siesta: ----------------------------------------
siesta:    Tot    0.001391   -0.000000   -0.000000

siesta: Stress tensor (static) (eV/Ang**3):
siesta:     0.000702    0.000000    0.000000
siesta:     0.000000    0.000000    0.000000
siesta:    -0.000000    0.000000    0.000000

siesta: Cell volume =       4913.000000 Ang**3

siesta: Pressure (static):
siesta:                Solid            Molecule  Units
siesta:          -0.00000255          0.00000000  Ry/Bohr**3
siesta:          -0.00023396          0.00000003  eV/Ang**3
siesta:          -0.37484461          0.00005140  kBar
(Free)E+ p_basis*V_orbitals  =        -298.744961
(Free)Eharris+ p_basis*V_orbitals  =        -298.744955

siesta: Electric dipole (a.u.)  =   -0.000009   -0.000000   -0.000000
siesta: Electric dipole (Debye) =   -0.000023   -0.000000   -0.000000

cite: Please see "C.bib" for an exhaustive BiBTeX file.
cite: Please clearly indicate Siesta version in published work: v4.1.5-1-g384057250
cite: This calculation has made use of the following articles
cite: which are encouraged to be cited in a published work.
        Primary SIESTA paper
          DOI: www.doi.org/10.1088/0953-8984/14/11/302
 

timer: Elapsed wall time (sec) =     145.132
timer: CPU execution times (sec):

Routine            Calls   Time/call    Tot.time        %
siesta                 1     144.561     144.561   100.00
Setup                  1       0.172       0.172     0.12
bands                  1       0.000       0.000     0.00
KSV_init               1       0.000       0.000     0.00
IterGeom               8      18.048     144.387    99.88
state_init             8       0.028       0.221     0.15
hsparse                8       0.000       0.001     0.00
overlap                8       0.026       0.211     0.15
Setup_H0               8       1.038       8.303     5.74
naefs                 16       0.000       0.001     0.00
MolMec                16       0.000       0.000     0.00
kinefsm               16       0.012       0.200     0.14
nlefsm                16       0.040       0.640     0.44
DHSCF_Init             8       0.935       7.482     5.18
DHSCF1                 8       0.059       0.470     0.33
INITMESH               8       0.000       0.000     0.00
DHSCF2                 8       0.876       7.011     4.85
REMESH                 8       0.019       0.148     0.10
REORD                386       0.010       3.817     2.64
PHION                  8       0.346       2.768     1.92
COMM_BSC             668       0.007       4.623     3.20
POISON               169       0.424      71.640    49.56
fft                  338       0.155      52.308    36.18
IterSCF              145       0.866     125.551    86.85
setup_H              153       0.819     125.379    86.73
DHSCF                161       0.835     134.373    92.95
DHSCF3               161       0.811     130.554    90.31
rhoofd               161       0.048       7.750     5.36
XC                   161       0.108      17.360    12.01
GXC-CellXC           161       0.064      10.368     7.17
cellXC               161       0.064      10.366     7.17
vmat                 161       0.042       6.759     4.68
compute_dm           145       0.000       0.070     0.05
diagon               145       0.000       0.067     0.05
r-eigvec             145       0.000       0.057     0.04
r-buildHS            145       0.000       0.001     0.00
rdiag                145       0.000       0.054     0.04
rdiag1               145       0.000       0.004     0.00
rdiag2               145       0.000       0.004     0.00
rdiag3               145       0.000       0.038     0.03
rdiag4               145       0.000       0.005     0.00
r-buildD             145       0.000       0.006     0.00
MIXER                137       0.000       0.009     0.01
PostSCF                8       1.287      10.295     7.12
DHSCF4                 8       0.477       3.817     2.64
dfscf                  8       0.362       2.896     2.00
overfsm                8       0.001       0.004     0.00
state_analysis         8       0.001       0.006     0.00
siesta_move            8       0.000       0.004     0.00
Analysis               1       0.002       0.002     0.00
siesta_analysis        1       0.002       0.002     0.00
optical                1       0.000       0.000     0.00
  
>> End of run:   2-OCT-2022  20:23:14
Job completed
