Siesta Version  : v4.1.5-1-g384057250
Architecture    : unknown
Compiler version: ifort (IFORT) 2021.2.0 20210228
Compiler flags  : ifort -O2 -fPIC -fp-model source
PP flags        : -DFC_HAVE_ABORT -DSIESTA__DIAG_2STAGE -DSIESTA__MRRR
Libraries       : libsiestaLAPACK.a libsiestaBLAS.a
SERIAL version

* Running in serial mode
>> Start of run:   2-OCT-2022  20:25:58

                           ***********************       
                           *  WELCOME TO SIESTA  *       
                           ***********************       

reinit: Reading from C.fdf

reinit: -----------------------------------------------------------------------
reinit: System Name: Carbon
reinit: -----------------------------------------------------------------------
reinit: System Label: C
reinit: -----------------------------------------------------------------------

initatom: Reading input for the pseudopotentials and atomic orbitals ----------
Species number:   1 Atomic number:    6 Label: C
 
Ground state valence configuration:   2s02  2p02
Reading pseudopotential information in formatted form from C.psf

Valence configuration for pseudopotential generation:
2s( 2.00) rc: 1.25
2p( 2.00) rc: 1.25
3d( 0.00) rc: 1.25
4f( 0.00) rc: 1.25
For C, standard SIESTA heuristics set lmxkb to 3
 (one more than the basis l, including polarization orbitals).
Use PS.lmax or PS.KBprojectors blocks to override.

<basis_specs>
===============================================================================
C                    Z=   6    Mass=  12.010        Charge= 0.17977+309
Lmxo=1 Lmxkb= 3    BasisType=split      Semic=F
L=0  Nsemic=0  Cnfigmx=2
          i=1  nzeta=2  polorb=0  (2s)
            splnorm:   0.15000    
               vcte:    0.0000    
               rinn:    0.0000    
               qcoe:    0.0000    
               qyuk:    0.0000    
               qwid:   0.10000E-01
                rcs:    0.0000      0.0000    
            lambdas:    1.0000      1.0000    
L=1  Nsemic=0  Cnfigmx=2
          i=1  nzeta=2  polorb=1  (2p)
            splnorm:   0.15000    
               vcte:    0.0000    
               rinn:    0.0000    
               qcoe:    0.0000    
               qyuk:    0.0000    
               qwid:   0.10000E-01
                rcs:    0.0000      0.0000    
            lambdas:    1.0000      1.0000    
-------------------------------------------------------------------------------
L=0  Nkbl=1  erefs: 0.17977+309
L=1  Nkbl=1  erefs: 0.17977+309
L=2  Nkbl=1  erefs: 0.17977+309
L=3  Nkbl=1  erefs: 0.17977+309
===============================================================================
</basis_specs>

atom: Called for C                     (Z =   6)

read_vps: Pseudopotential generation method:
read_vps: ATM3      Troullier-Martins                       
Valence charge for ps generation:    4.00000

xc_check: Exchange-correlation functional:
xc_check: Ceperley-Alder
V l=0 = -2*Zval/r beyond r=  1.3951
V l=1 = -2*Zval/r beyond r=  1.3777
V l=2 = -2*Zval/r beyond r=  1.3777
V l=3 = -2*Zval/r beyond r=  1.3777
All V_l potentials equal beyond r=  1.2311
This should be close to max(r_c) in ps generation
All pots = -2*Zval/r beyond r=  1.3951

VLOCAL1: 99.0% of the norm of Vloc inside     28.641 Ry
VLOCAL1: 99.9% of the norm of Vloc inside     65.273 Ry
atom: Maximum radius for 4*pi*r*r*local-pseudopot. charge    1.48507
atom: Maximum radius for r*vlocal+2*Zval:    1.27815
GHOST: No ghost state for L =  0
GHOST: No ghost state for L =  1
GHOST: No ghost state for L =  2
GHOST: No ghost state for L =  3

KBgen: Kleinman-Bylander projectors: 
   l= 0   rc=  1.600766   el= -1.001946   Ekb=  7.816946   kbcos=  0.279978
   l= 1   rc=  1.620907   el= -0.398597   Ekb= -4.829535   kbcos= -0.287433
   l= 2   rc=  1.836783   el=  0.002326   Ekb= -1.327964   kbcos= -0.005365
   l= 3   rc=  1.979871   el=  0.003420   Ekb= -0.522285   kbcos= -0.000569

KBgen: Total number of Kleinman-Bylander projectors:   16
atom: -------------------------------------------------------------------------

atom: SANKEY-TYPE ORBITALS:
atom: Selected multiple-zeta basis: split     

SPLIT: Orbitals with angular momentum L= 0

SPLIT: Basis orbitals for state 2s

SPLIT: PAO cut-off radius determined from an
SPLIT: energy shift=  0.003675 Ry

   izeta = 1
                 lambda =    1.000000
                     rc =    5.120028
                 energy =   -0.998772
                kinetic =    0.858242
    potential(screened) =   -1.857014
       potential(ionic) =   -5.418547

   izeta = 2
                 rmatch =    3.518811
              splitnorm =    0.150000
                 energy =   -0.870182
                kinetic =    1.330004
    potential(screened) =   -2.200186
       potential(ionic) =   -6.017108

SPLIT: Orbitals with angular momentum L= 1

SPLIT: Basis orbitals for state 2p

SPLIT: PAO cut-off radius determined from an
SPLIT: energy shift=  0.003675 Ry

   izeta = 1
                 lambda =    1.000000
                     rc =    6.253707
                 energy =   -0.395142
                kinetic =    2.439321
    potential(screened) =   -2.834463
       potential(ionic) =   -6.264070

   izeta = 2
                 rmatch =    3.745781
              splitnorm =    0.150000
                 energy =   -0.266467
                kinetic =    3.655359
    potential(screened) =   -3.921826
       potential(ionic) =   -7.757575

POLgen: Perturbative polarization orbital with L=  2

POLgen: Polarization orbital for state 2p

   izeta = 1
                     rc =    6.253707
                 energy =    1.009535
                kinetic =    2.120051
    potential(screened) =   -1.110516
       potential(ionic) =   -3.842863
atom: Total number of Sankey-type orbitals: 13

atm_pop: Valence configuration (for local Pseudopot. screening):
 2s( 2.00)                                                            
 2p( 2.00)                                                            
Vna: chval, zval:    4.00000   4.00000

Vna:  Cut-off radius for the neutral-atom potential:   6.253707

atom: _________________________________________________________________________

prinput: Basis input ----------------------------------------------------------

PAO.BasisType split     

%block ChemicalSpeciesLabel
    1    6 C                       # Species index, atomic number, species label
%endblock ChemicalSpeciesLabel

%block PAO.Basis                 # Define Basis set
C                     2                    # Species label, number of l-shells
 n=2   0   2                         # n, l, Nzeta 
   5.120      3.519   
   1.000      1.000   
 n=2   1   2 P   1                   # n, l, Nzeta, Polarization, NzetaPol
   6.254      3.746   
   1.000      1.000   
%endblock PAO.Basis

prinput: ----------------------------------------------------------------------

coor:   Atomic-coordinates input format  =     Cartesian coordinates
coor:                                          (in Angstroms)

siesta: Atomic coordinates (Bohr) and species
siesta:      0.72270   0.00000   0.00000  1        1
siesta:      3.09179   0.00000   0.00000  1        2

siesta: System type = molecule  

initatomlists: Number of atoms, orbitals, and projectors:      2    26    32

siesta: ******************** Simulation parameters ****************************
siesta:
siesta: The following are some of the parameters of the simulation.
siesta: A complete list of the parameters used, including default values,
siesta: can be found in file out.fdf
siesta:
redata: Spin configuration                          = none
redata: Number of spin components                   = 1
redata: Time-Reversal Symmetry                      = T
redata: Spin spiral                                 = F
redata: Long output                                 =   F
redata: Number of Atomic Species                    =        1
redata: Charge density info will appear in .RHO file
redata: Write Mulliken Pop.                         = NO
redata: Matel table size (NRTAB)                    =     1024
redata: Mesh Cutoff                                 =   200.0000 Ry
redata: Net charge of the system                    =     0.0000 |e|
redata: Min. number of SCF Iter                     =        0
redata: Max. number of SCF Iter                     =      200
redata: SCF convergence failure will abort job
redata: SCF mix quantity                            = Hamiltonian
redata: Mix DM or H after convergence               =   F
redata: Recompute H after scf cycle                 =   F
redata: Mix DM in first SCF step                    =   T
redata: Write Pulay info on disk                    =   F
redata: New DM Occupancy tolerance                  = 0.000000000001
redata: No kicks to SCF
redata: DM Mixing Weight for Kicks                  =     0.5000
redata: Require Harris convergence for SCF          =   F
redata: Harris energy tolerance for SCF             =     0.000100 eV
redata: Require DM convergence for SCF              =   T
redata: DM tolerance for SCF                        =     0.000100
redata: Require EDM convergence for SCF             =   F
redata: EDM tolerance for SCF                       =     0.001000 eV
redata: Require H convergence for SCF               =   T
redata: Hamiltonian tolerance for SCF               =     0.001000 eV
redata: Require (free) Energy convergence for SCF   =   F
redata: (free) Energy tolerance for SCF             =     0.000100 eV
redata: Using Saved Data (generic)                  =   F
redata: Use continuation files for DM               =   F
redata: Neglect nonoverlap interactions             =   F
redata: Method of Calculation                       = Diagonalization
redata: Electronic Temperature                      =   299.9978 K
redata: Fix the spin of the system                  =   F
redata: Dynamics option                             = CG coord. optimization
redata: Variable cell                               =   F
redata: Use continuation files for CG               =   F
redata: Max atomic displ per move                   =     0.0529 Ang
redata: Maximum number of optimization moves        =      150
redata: Force tolerance                             =     0.0400 eV/Ang
mix.SCF: Pulay mixing                            = Pulay
mix.SCF:    Variant                              = stable
mix.SCF:    History steps                        = 5
mix.SCF:    Linear mixing weight                 =     0.100000
mix.SCF:    Mixing weight                        =     0.100000
mix.SCF:    SVD condition                        = 0.1000E-07
redata: ***********************************************************************

%block SCF.Mixers
  Pulay
%endblock SCF.Mixers

%block SCF.Mixer.Pulay
  # Mixing method
  method pulay
  variant stable

  # Mixing options
  weight 0.1000
  weight.linear 0.1000
  history 5
%endblock SCF.Mixer.Pulay
 
DM_history_depth set to one: no extrapolation allowed by default for geometry relaxation
Size of DM history Fstack: 1
Total number of electrons:     8.000000
Total ionic charge:     8.000000
 Kpoints in:            1 . Kpoints trimmed:            1

siesta: k-grid: Number of k-points =     1
siesta: k-grid: Cutoff (effective) =     8.500 Ang
siesta: k-grid: Supercell and displacements
siesta: k-grid:    1   0   0      0.000
siesta: k-grid:    0   1   0      0.000
siesta: k-grid:    0   0   1      0.000
 
diag: Algorithm                                     = D&C
diag: Used triangular part                          = Lower
diag: Absolute tolerance                            =  0.100E-15
diag: Orthogonalization factor                      =  0.100E-05
diag: Memory factor                                 =  1.0000
 
siesta: Constraints using custom constr routine
 
ts: **************************************************************
ts: Save H and S matrices                           =    F
ts: Save DM and EDM matrices                        =    F
ts: Only save the overlap matrix S                  =    F
ts: **************************************************************
 
************************ Begin: TS CHECKS AND WARNINGS ************************
************************ End: TS CHECKS AND WARNINGS **************************


                     ====================================
                        Begin CG opt. move =      0
                     ====================================

outcell: Unit cell vectors (Ang):
       17.000000    0.000000    0.000000
        0.000000   17.000000    0.000000
        0.000000    0.000000   17.000000

outcell: Cell vector modules (Ang)   :   17.000000   17.000000   17.000000
outcell: Cell angles (23,13,12) (deg):     90.0000     90.0000     90.0000
outcell: Cell volume (Ang**3)        :   4913.0000
<dSpData1D:S at geom step 0
  <sparsity:sparsity for geom step 0
    nrows_g=26 nrows=26 sparsity=1.0000 nnzs=676, refcount: 7>
  <dData1D:(new from dSpData1D) n=676, refcount: 1>
refcount: 1>
new_DM -- step:     1
Initializing Density Matrix...
DM filled with atomic data:
<dSpData2D:DM initialized from atoms
  <sparsity:sparsity for geom step 0
    nrows_g=26 nrows=26 sparsity=1.0000 nnzs=676, refcount: 8>
  <dData2D:DM n=676 m=1, refcount: 1>
refcount: 1>
No. of atoms with KB's overlaping orbs in proc 0. Max # of overlaps:       2      26
New grid distribution:   1
           1       1:   75    1:   75    1:   75

InitMesh: MESH =   150 x   150 x   150 =     3375000
InitMesh: (bp) =    75 x    75 x    75 =      421875
InitMesh: Mesh cutoff (required, used) =   200.000   215.172 Ry
ExtMesh (bp) on 0 =   135 x   135 x   135 =     2460375
PhiOnMesh: Number of (b)points on node 0 =               421875
PhiOnMesh: nlist on node 0 =               265046

stepf: Fermi-Dirac step function

siesta: Program's energy decomposition (eV):
siesta: Ebs     =       -78.028947
siesta: Eions   =       632.268963
siesta: Ena     =       220.613618
siesta: Ekin    =       203.184680
siesta: Enl     =         3.882011
siesta: Eso     =         0.000000
siesta: Edftu   =         0.000000
siesta: DEna    =       -10.911958
siesta: DUscf   =         2.297446
siesta: DUext   =         0.000000
siesta: Exc     =       -85.946454
siesta: eta*DQ  =         0.000000
siesta: Emadel  =         0.000000
siesta: Emeta   =         0.000000
siesta: Emolmec =         0.000000
siesta: Ekinion =         0.000000
siesta: Eharris =      -298.964344
siesta: Etot    =      -299.149619
siesta: FreeEng =      -299.149619

        iscf     Eharris(eV)        E_KS(eV)     FreeEng(eV)     dDmax    Ef(eV) dHmax(eV)
   scf:    1     -298.964344     -299.149619     -299.149619  1.605035 -9.199936  3.581121
timer: Routine,Calls,Time,% = IterSCF        1       1.615  42.77
   scf:    2     -299.566354     -299.362160     -299.362161  0.021090 -8.957718  2.922020
   scf:    3     -299.475682     -299.726280     -299.794084  0.326412 -7.830453  0.565601
   scf:    4     -299.859933     -299.851927     -299.876059  0.175726 -7.937194  0.103960
   scf:    5     -299.815215     -299.838295     -299.848227  0.044594 -8.058678  0.390561
   scf:    6     -299.811438     -299.841187     -299.881497  0.088221 -7.992680  0.104682
   scf:    7     -299.855114     -299.850678     -299.879326  0.034680 -7.973048  0.100469
   scf:    8     -299.822971     -299.840119     -299.881261  0.040876 -7.947440  0.055178
   scf:    9     -299.844395     -299.842310     -299.881906  0.005392 -7.948768  0.035765
   scf:   10     -299.845879     -299.844142     -299.882269  0.004997 -7.949074  0.018546
   scf:   11     -299.847506     -299.845878     -299.882405  0.005317 -7.948926  0.000528
   scf:   12     -299.846006     -299.845942     -299.882405  0.000213 -7.948912  0.000189
   scf:   13     -299.845887     -299.845914     -299.882405  0.000088 -7.948918  0.000119

SCF Convergence by DM+H criterion
max |DM_out - DM_in|         :     0.0000884931
max |H_out - H_in|      (eV) :     0.0001186694
SCF cycle converged after 13 iterations

Using DM_out to compute the final energy and forces
No. of atoms with KB's overlaping orbs in proc 0. Max # of overlaps:       2      26

siesta: E_KS(eV) =             -299.8459

siesta: E_KS - E_eggbox =      -299.8459

siesta: Atomic forces (eV/Ang):
----------------------------------------
   Tot   -0.001789   -0.000000    0.000000
----------------------------------------
   Max    2.608245
   Res    1.505355    sqrt( Sum f_i^2 / 3N )
----------------------------------------
   Max    7.397809    constrained

Stress tensor Voigt[x,y,z,yz,xz,xy] (kbar):       -1.07        0.00        0.00        0.00       -0.00       -0.00
(Free)E + p*V (eV/cell)     -298.7939
Target enthalpy (eV/cell)     -299.8824

                     ====================================
                        Begin CG opt. move =      1
                     ====================================

outcell: Unit cell vectors (Ang):
       17.000000    0.000000    0.000000
        0.000000   17.000000    0.000000
        0.000000    0.000000   17.000000

outcell: Cell vector modules (Ang)   :   17.000000   17.000000   17.000000
outcell: Cell angles (23,13,12) (deg):     90.0000     90.0000     90.0000
outcell: Cell volume (Ang**3)        :   4913.0000
<dSpData1D:S at geom step 1
  <sparsity:sparsity for geom step 1
    nrows_g=26 nrows=26 sparsity=1.0000 nnzs=676, refcount: 7>
  <dData1D:(new from dSpData1D) n=676, refcount: 1>
refcount: 1>
new_DM -- step:     2
Re-using DM from previous geometries...
Number of DMs in history: 1
 DM extrapolation coefficients: 
1   1.00000
New DM after history re-use:
<dSpData2D:SpM extrapolated using coords
  <sparsity:sparsity for geom step 1
    nrows_g=26 nrows=26 sparsity=1.0000 nnzs=676, refcount: 9>
  <dData2D:(temp array for extrapolation) n=676 m=1, refcount: 1>
refcount: 1>
Note: For starting DM, Qtot, Tr[D*S] =          8.00000000          8.14676577
No. of atoms with KB's overlaping orbs in proc 0. Max # of overlaps:       2      26
New grid distribution:   1
           1       1:   75    1:   75    1:   75

InitMesh: MESH =   150 x   150 x   150 =     3375000
InitMesh: (bp) =    75 x    75 x    75 =      421875
InitMesh: Mesh cutoff (required, used) =   200.000   215.172 Ry
ExtMesh (bp) on 0 =   135 x   135 x   135 =     2460375
PhiOnMesh: Number of (b)points on node 0 =               421875
PhiOnMesh: nlist on node 0 =               265187

        iscf     Eharris(eV)        E_KS(eV)     FreeEng(eV)     dDmax    Ef(eV) dHmax(eV)
   scf:    1     -299.285309     -299.399798     -299.399943  0.152725 -8.423619  0.968109
   scf:    2     -299.169726     -299.340089     -299.370321  0.116293 -7.754730  0.975047
   scf:    3     -299.485919     -299.436636     -299.438865  0.089877 -8.098034  0.070363
   scf:    4     -299.436478     -299.436580     -299.439192  0.001801 -8.082841  0.036786
   scf:    5     -299.421437     -299.429565     -299.438239  0.013713 -8.079571  0.073476
   scf:    6     -299.435479     -299.432574     -299.439045  0.004548 -8.071166  0.047669
   scf:    7     -299.436944     -299.434824     -299.439433  0.004593 -8.078961  0.008009
   scf:    8     -299.435577     -299.435203     -299.439445  0.000854 -8.079350  0.000409
   scf:    9     -299.435235     -299.435219     -299.439445  0.000039 -8.079371  0.000091

SCF Convergence by DM+H criterion
max |DM_out - DM_in|         :     0.0000391036
max |H_out - H_in|      (eV) :     0.0000912912
SCF cycle converged after 9 iterations

Using DM_out to compute the final energy and forces
No. of atoms with KB's overlaping orbs in proc 0. Max # of overlaps:       2      26

siesta: E_KS(eV) =             -299.4352

siesta: Atomic forces (eV/Ang):
----------------------------------------
   Tot    0.000929    0.000000   -0.000000
----------------------------------------
   Max    9.872609
   Res    5.699685    sqrt( Sum f_i^2 / 3N )
----------------------------------------
   Max    1.183686    constrained

Stress tensor Voigt[x,y,z,yz,xz,xy] (kbar):       -3.79        0.00        0.00        0.00        0.00       -0.00
(Free)E + p*V (eV/cell)     -295.5608
Target enthalpy (eV/cell)     -299.4394

                     ====================================
                        Begin CG opt. move =      2
                     ====================================

outcell: Unit cell vectors (Ang):
       17.000000    0.000000    0.000000
        0.000000   17.000000    0.000000
        0.000000    0.000000   17.000000

outcell: Cell vector modules (Ang)   :   17.000000   17.000000   17.000000
outcell: Cell angles (23,13,12) (deg):     90.0000     90.0000     90.0000
outcell: Cell volume (Ang**3)        :   4913.0000
<dSpData1D:S at geom step 2
  <sparsity:sparsity for geom step 2
    nrows_g=26 nrows=26 sparsity=1.0000 nnzs=676, refcount: 7>
  <dData1D:(new from dSpData1D) n=676, refcount: 1>
refcount: 1>
new_DM -- step:     3
Re-using DM from previous geometries...
Number of DMs in history: 1
 DM extrapolation coefficients: 
1   1.00000
New DM after history re-use:
<dSpData2D:SpM extrapolated using coords
  <sparsity:sparsity for geom step 2
    nrows_g=26 nrows=26 sparsity=1.0000 nnzs=676, refcount: 9>
  <dData2D:(temp array for extrapolation) n=676 m=1, refcount: 1>
refcount: 1>
Note: For starting DM, Qtot, Tr[D*S] =          8.00000000          7.97886682
No. of atoms with KB's overlaping orbs in proc 0. Max # of overlaps:       2      26
New grid distribution:   1
           1       1:   75    1:   75    1:   75

InitMesh: MESH =   150 x   150 x   150 =     3375000
InitMesh: (bp) =    75 x    75 x    75 =      421875
InitMesh: Mesh cutoff (required, used) =   200.000   215.172 Ry
ExtMesh (bp) on 0 =   135 x   135 x   135 =     2460375
PhiOnMesh: Number of (b)points on node 0 =               421875
PhiOnMesh: nlist on node 0 =               265142

        iscf     Eharris(eV)        E_KS(eV)     FreeEng(eV)     dDmax    Ef(eV) dHmax(eV)
   scf:    1     -299.519672     -299.524349     -299.533859  0.019482 -8.009794  0.145850
   scf:    2     -299.531039     -299.528792     -299.533634  0.015822 -8.109613  0.144535
   scf:    3     -299.526355     -299.527854     -299.534795  0.007444 -8.058648  0.004916
   scf:    4     -299.529192     -299.528525     -299.534707  0.002012 -8.061695  0.020133
   scf:    5     -299.527357     -299.527956     -299.534788  0.001652 -8.060850  0.008635
   scf:    6     -299.527087     -299.527524     -299.534803  0.001141 -8.060123  0.001620
   scf:    7     -299.527283     -299.527403     -299.534802  0.000304 -8.059934  0.000222
   scf:    8     -299.527433     -299.527418     -299.534802  0.000037 -8.059955  0.000015

SCF Convergence by DM+H criterion
max |DM_out - DM_in|         :     0.0000367372
max |H_out - H_in|      (eV) :     0.0000153009
SCF cycle converged after 8 iterations

Using DM_out to compute the final energy and forces
No. of atoms with KB's overlaping orbs in proc 0. Max # of overlaps:       2      26

siesta: E_KS(eV) =             -299.5274

siesta: Atomic forces (eV/Ang):
----------------------------------------
   Tot    0.000567   -0.000000   -0.000000
----------------------------------------
   Max    8.617780
   Res    4.975314    sqrt( Sum f_i^2 / 3N )
----------------------------------------
   Max    0.573140    constrained

Stress tensor Voigt[x,y,z,yz,xz,xy] (kbar):       -3.34        0.00        0.00       -0.00        0.00       -0.00
(Free)E + p*V (eV/cell)     -296.1197
Target enthalpy (eV/cell)     -299.5348

cgvc: Finished line minimization    1.  Mean atomic displacement =    0.0610

                     ====================================
                        Begin CG opt. move =      3
                     ====================================

outcell: Unit cell vectors (Ang):
       17.000000    0.000000    0.000000
        0.000000   17.000000    0.000000
        0.000000    0.000000   17.000000

outcell: Cell vector modules (Ang)   :   17.000000   17.000000   17.000000
outcell: Cell angles (23,13,12) (deg):     90.0000     90.0000     90.0000
outcell: Cell volume (Ang**3)        :   4913.0000
<dSpData1D:S at geom step 3
  <sparsity:sparsity for geom step 3
    nrows_g=26 nrows=26 sparsity=1.0000 nnzs=676, refcount: 7>
  <dData1D:(new from dSpData1D) n=676, refcount: 1>
refcount: 1>
new_DM -- step:     4
Re-using DM from previous geometries...
Number of DMs in history: 1
 DM extrapolation coefficients: 
1   1.00000
New DM after history re-use:
<dSpData2D:SpM extrapolated using coords
  <sparsity:sparsity for geom step 3
    nrows_g=26 nrows=26 sparsity=1.0000 nnzs=676, refcount: 9>
  <dData2D:(temp array for extrapolation) n=676 m=1, refcount: 1>
refcount: 1>
Note: For starting DM, Qtot, Tr[D*S] =          8.00000000          8.13085971
No. of atoms with KB's overlaping orbs in proc 0. Max # of overlaps:       2      26
New grid distribution:   1
           1       1:   75    1:   75    1:   75

InitMesh: MESH =   150 x   150 x   150 =     3375000
InitMesh: (bp) =    75 x    75 x    75 =      421875
InitMesh: Mesh cutoff (required, used) =   200.000   215.172 Ry
ExtMesh (bp) on 0 =   135 x   135 x   135 =     2460375
PhiOnMesh: Number of (b)points on node 0 =               421875
PhiOnMesh: nlist on node 0 =               265555

        iscf     Eharris(eV)        E_KS(eV)     FreeEng(eV)     dDmax    Ef(eV) dHmax(eV)
   scf:    1     -298.637502     -298.669752     -298.669771  0.068809 -8.526850  0.917368
   scf:    2     -298.637548     -298.674839     -298.675058  0.041573 -7.902169  0.802021
   scf:    3     -298.705346     -298.694977     -298.695047  0.020212 -8.197651  0.017665
   scf:    4     -298.694897     -298.694958     -298.695022  0.002040 -8.180544  0.038788
   scf:    5     -298.695042     -298.695008     -298.695066  0.000872 -8.193862  0.005501
   scf:    6     -298.694945     -298.694985     -298.695038  0.000857 -8.207606  0.029273
   scf:    7     -298.695022     -298.695010     -298.695067  0.000705 -8.197042  0.000786
   scf:    8     -298.695009     -298.695010     -298.695067  0.000019 -8.196746  0.000009

SCF Convergence by DM+H criterion
max |DM_out - DM_in|         :     0.0000194543
max |H_out - H_in|      (eV) :     0.0000094832
SCF cycle converged after 8 iterations

Using DM_out to compute the final energy and forces
No. of atoms with KB's overlaping orbs in proc 0. Max # of overlaps:       2      26

siesta: E_KS(eV) =             -298.6950

siesta: Atomic forces (eV/Ang):
----------------------------------------
   Tot   -0.001702    0.000000   -0.000000
----------------------------------------
   Max   18.022900
   Res   10.405035    sqrt( Sum f_i^2 / 3N )
----------------------------------------
   Max   11.967141    constrained

Stress tensor Voigt[x,y,z,yz,xz,xy] (kbar):       -6.61        0.00        0.00        0.00       -0.00        0.00
(Free)E + p*V (eV/cell)     -291.9398
Target enthalpy (eV/cell)     -298.6951

                     ====================================
                        Begin CG opt. move =      4
                     ====================================

outcell: Unit cell vectors (Ang):
       17.000000    0.000000    0.000000
        0.000000   17.000000    0.000000
        0.000000    0.000000   17.000000

outcell: Cell vector modules (Ang)   :   17.000000   17.000000   17.000000
outcell: Cell angles (23,13,12) (deg):     90.0000     90.0000     90.0000
outcell: Cell volume (Ang**3)        :   4913.0000
<dSpData1D:S at geom step 4
  <sparsity:sparsity for geom step 4
    nrows_g=26 nrows=26 sparsity=1.0000 nnzs=676, refcount: 7>
  <dData1D:(new from dSpData1D) n=676, refcount: 1>
refcount: 1>
new_DM -- step:     5
Re-using DM from previous geometries...
Number of DMs in history: 1
 DM extrapolation coefficients: 
1   1.00000
New DM after history re-use:
<dSpData2D:SpM extrapolated using coords
  <sparsity:sparsity for geom step 4
    nrows_g=26 nrows=26 sparsity=1.0000 nnzs=676, refcount: 9>
  <dData2D:(temp array for extrapolation) n=676 m=1, refcount: 1>
refcount: 1>
Note: For starting DM, Qtot, Tr[D*S] =          8.00000000          7.87608194
No. of atoms with KB's overlaping orbs in proc 0. Max # of overlaps:       2      26
New grid distribution:   1
           1       1:   75    1:   75    1:   75

InitMesh: MESH =   150 x   150 x   150 =     3375000
InitMesh: (bp) =    75 x    75 x    75 =      421875
InitMesh: Mesh cutoff (required, used) =   200.000   215.172 Ry
ExtMesh (bp) on 0 =   135 x   135 x   135 =     2460375
PhiOnMesh: Number of (b)points on node 0 =               421875
PhiOnMesh: nlist on node 0 =               265246

        iscf     Eharris(eV)        E_KS(eV)     FreeEng(eV)     dDmax    Ef(eV) dHmax(eV)
   scf:    1     -299.369531     -299.465293     -299.479327  0.086173 -7.753834  0.902352
   scf:    2     -299.439851     -299.481026     -299.481815  0.063936 -8.365687  0.832346
   scf:    3     -299.516632     -299.504751     -299.508517  0.023773 -8.064561  0.035111
   scf:    4     -299.505329     -299.505067     -299.508029  0.002967 -8.080058  0.067887
   scf:    5     -299.397837     -299.460243     -299.487994  0.065901 -8.040611  0.264484
   scf:    6     -299.445834     -299.453128     -299.483184  0.006808 -8.041620  0.288567
   scf:    7     -299.536440     -299.503198     -299.508864  0.064908 -8.066231  0.011939
   scf:    8     -299.502638     -299.502919     -299.508882  0.000757 -8.065642  0.006798
   scf:    9     -299.502627     -299.502773     -299.508887  0.000372 -8.065538  0.004250
   scf:   10     -299.503313     -299.503045     -299.508876  0.000699 -8.065810  0.009075
   scf:   11     -299.501551     -299.502305     -299.508889  0.001805 -8.065237  0.003421
   scf:   12     -299.502737     -299.502522     -299.508891  0.000513 -8.065410  0.000072
   scf:   13     -299.502512     -299.502517     -299.508891  0.000013 -8.065405  0.000015

SCF Convergence by DM+H criterion
max |DM_out - DM_in|         :     0.0000125991
max |H_out - H_in|      (eV) :     0.0000154322
SCF cycle converged after 13 iterations

Using DM_out to compute the final energy and forces
No. of atoms with KB's overlaping orbs in proc 0. Max # of overlaps:       2      26

siesta: E_KS(eV) =             -299.5025

siesta: Atomic forces (eV/Ang):
----------------------------------------
   Tot    0.000737    0.000000   -0.000000
----------------------------------------
   Max    8.965975
   Res    5.176295    sqrt( Sum f_i^2 / 3N )
----------------------------------------
   Max    0.081909    constrained

Stress tensor Voigt[x,y,z,yz,xz,xy] (kbar):       -3.47        0.00        0.00        0.00        0.00        0.00
(Free)E + p*V (eV/cell)     -295.9650
Target enthalpy (eV/cell)     -299.5089

cgvc: Finished line minimization    2.  Mean atomic displacement =    0.0028

                     ====================================
                        Begin CG opt. move =      5
                     ====================================

outcell: Unit cell vectors (Ang):
       17.000000    0.000000    0.000000
        0.000000   17.000000    0.000000
        0.000000    0.000000   17.000000

outcell: Cell vector modules (Ang)   :   17.000000   17.000000   17.000000
outcell: Cell angles (23,13,12) (deg):     90.0000     90.0000     90.0000
outcell: Cell volume (Ang**3)        :   4913.0000
<dSpData1D:S at geom step 5
  <sparsity:sparsity for geom step 5
    nrows_g=26 nrows=26 sparsity=1.0000 nnzs=676, refcount: 7>
  <dData1D:(new from dSpData1D) n=676, refcount: 1>
refcount: 1>
new_DM -- step:     6
Re-using DM from previous geometries...
Number of DMs in history: 1
 DM extrapolation coefficients: 
1   1.00000
New DM after history re-use:
<dSpData2D:SpM extrapolated using coords
  <sparsity:sparsity for geom step 5
    nrows_g=26 nrows=26 sparsity=1.0000 nnzs=676, refcount: 9>
  <dData2D:(temp array for extrapolation) n=676 m=1, refcount: 1>
refcount: 1>
No. of atoms with KB's overlaping orbs in proc 0. Max # of overlaps:       2      26
New grid distribution:   1
           1       1:   75    1:   75    1:   75

InitMesh: MESH =   150 x   150 x   150 =     3375000
InitMesh: (bp) =    75 x    75 x    75 =      421875
InitMesh: Mesh cutoff (required, used) =   200.000   215.172 Ry
ExtMesh (bp) on 0 =   135 x   135 x   135 =     2460375
PhiOnMesh: Number of (b)points on node 0 =               421875
PhiOnMesh: nlist on node 0 =               265206

        iscf     Eharris(eV)        E_KS(eV)     FreeEng(eV)     dDmax    Ef(eV) dHmax(eV)
   scf:    1     -299.477187     -299.476811     -299.481858  0.005133 -8.085272  0.041167
   scf:    2     -299.474744     -299.475859     -299.481867  0.003619 -8.057134  0.039734
   scf:    3     -299.476998     -299.476447     -299.481942  0.001887 -8.071217  0.000886
   scf:    4     -299.476494     -299.476471     -299.481942  0.000072 -8.070871  0.000335

SCF Convergence by DM+H criterion
max |DM_out - DM_in|         :     0.0000723970
max |H_out - H_in|      (eV) :     0.0003350840
SCF cycle converged after 4 iterations

Using DM_out to compute the final energy and forces
No. of atoms with KB's overlaping orbs in proc 0. Max # of overlaps:       2      26

siesta: E_KS(eV) =             -299.4765

siesta: Atomic forces (eV/Ang):
----------------------------------------
   Tot    0.000473    0.000000   -0.000000
----------------------------------------
   Max    9.322037
   Res    5.381944    sqrt( Sum f_i^2 / 3N )
----------------------------------------
   Max    0.418099    constrained

Stress tensor Voigt[x,y,z,yz,xz,xy] (kbar):       -3.60        0.00        0.00        0.00       -0.00       -0.00
(Free)E + p*V (eV/cell)     -295.8063
Target enthalpy (eV/cell)     -299.4819

                     ====================================
                        Begin CG opt. move =      6
                     ====================================

outcell: Unit cell vectors (Ang):
       17.000000    0.000000    0.000000
        0.000000   17.000000    0.000000
        0.000000    0.000000   17.000000

outcell: Cell vector modules (Ang)   :   17.000000   17.000000   17.000000
outcell: Cell angles (23,13,12) (deg):     90.0000     90.0000     90.0000
outcell: Cell volume (Ang**3)        :   4913.0000
<dSpData1D:S at geom step 6
  <sparsity:sparsity for geom step 6
    nrows_g=26 nrows=26 sparsity=1.0000 nnzs=676, refcount: 7>
  <dData1D:(new from dSpData1D) n=676, refcount: 1>
refcount: 1>
new_DM -- step:     7
Re-using DM from previous geometries...
Number of DMs in history: 1
 DM extrapolation coefficients: 
1   1.00000
New DM after history re-use:
<dSpData2D:SpM extrapolated using coords
  <sparsity:sparsity for geom step 6
    nrows_g=26 nrows=26 sparsity=1.0000 nnzs=676, refcount: 9>
  <dData2D:(temp array for extrapolation) n=676 m=1, refcount: 1>
refcount: 1>
No. of atoms with KB's overlaping orbs in proc 0. Max # of overlaps:       2      26
New grid distribution:   1
           1       1:   75    1:   75    1:   75

InitMesh: MESH =   150 x   150 x   150 =     3375000
InitMesh: (bp) =    75 x    75 x    75 =      421875
InitMesh: Mesh cutoff (required, used) =   200.000   215.172 Ry
ExtMesh (bp) on 0 =   135 x   135 x   135 =     2460375
PhiOnMesh: Number of (b)points on node 0 =               421875
PhiOnMesh: nlist on node 0 =               265232

        iscf     Eharris(eV)        E_KS(eV)     FreeEng(eV)     dDmax    Ef(eV) dHmax(eV)
   scf:    1     -299.497349     -299.497917     -299.504516  0.004325 -8.054364  0.034620
   scf:    2     -299.499579     -299.498801     -299.504506  0.003360 -8.077885  0.035829
   scf:    3     -299.497987     -299.498408     -299.504562  0.001758 -8.066029  0.001015
   scf:    4     -299.498390     -299.498399     -299.504563  0.000032 -8.066067  0.000753

SCF Convergence by DM+H criterion
max |DM_out - DM_in|         :     0.0000316479
max |H_out - H_in|      (eV) :     0.0007533889
SCF cycle converged after 4 iterations

Using DM_out to compute the final energy and forces
No. of atoms with KB's overlaping orbs in proc 0. Max # of overlaps:       2      26

siesta: E_KS(eV) =             -299.4984

siesta: Atomic forces (eV/Ang):
----------------------------------------
   Tot    0.000606    0.000000   -0.000000
----------------------------------------
   Max    9.023043
   Res    5.209281    sqrt( Sum f_i^2 / 3N )
----------------------------------------
   Max    0.001327    constrained

Stress tensor Voigt[x,y,z,yz,xz,xy] (kbar):       -3.49        0.00        0.00        0.00       -0.00        0.00
(Free)E + p*V (eV/cell)     -295.9395
Target enthalpy (eV/cell)     -299.5046

outcoor: Relaxed atomic coordinates (Ang):                  
    0.41641820   -0.00000000    0.00000000   1       1  C
    1.60214112   -0.00000000   -0.00000000   1       2  C

siesta: Program's energy decomposition (eV):
siesta: Ebs     =       -92.050191
siesta: Eions   =       632.268963
siesta: Ena     =       220.416862
siesta: Ekin    =       198.728075
siesta: Enl     =         5.036753
siesta: Eso     =         0.000000
siesta: Edftu   =         0.000000
siesta: DEna    =        -7.264640
siesta: DUscf   =         1.058112
siesta: DUext   =         0.000000
siesta: Exc     =       -85.204600
siesta: eta*DQ  =         0.000000
siesta: Emadel  =         0.000000
siesta: Emeta   =         0.000000
siesta: Emolmec =         0.000000
siesta: Ekinion =         0.000000
siesta: Eharris =      -299.498390
siesta: Etot    =      -299.498399
siesta: FreeEng =      -299.504563

siesta: Final energy (eV):
siesta:  Band Struct. =     -92.050191
siesta:       Kinetic =     198.728075
siesta:       Hartree =     351.505513
siesta:       Edftu   =       0.000000
siesta:       Eso     =       0.000000
siesta:    Ext. field =       0.000000
siesta:   Exch.-corr. =     -85.204600
siesta:  Ion-electron =    -882.441308
siesta:       Ion-ion =     117.913921
siesta:       Ekinion =       0.000000
siesta:         Total =    -299.498399
siesta:         Fermi =      -8.066067

siesta: Atomic forces (eV/Ang):
siesta:      1   -9.022437    0.000000   -0.000000
siesta:      2    9.023043   -0.000000    0.000000
siesta: ----------------------------------------
siesta:    Tot    0.000606    0.000000   -0.000000

siesta: Stress tensor (static) (eV/Ang**3):
siesta:    -0.002177    0.000000    0.000000
siesta:     0.000000    0.000000   -0.000000
siesta:    -0.000000    0.000000    0.000000

siesta: Cell volume =       4913.000000 Ang**3

siesta: Pressure (static):
siesta:                Solid            Molecule  Units
siesta:           0.00000790         -0.00000000  Ry/Bohr**3
siesta:           0.00072563         -0.00000023  eV/Ang**3
siesta:           1.16260608         -0.00036446  kBar
(Free)E+ p_basis*V_orbitals  =        -298.389587
(Free)Eharris+ p_basis*V_orbitals  =        -298.389577

siesta: Electric dipole (a.u.)  =   -0.000008    0.000000    0.000000
siesta: Electric dipole (Debye) =   -0.000021    0.000000    0.000000

cite: Please see "C.bib" for an exhaustive BiBTeX file.
cite: Please clearly indicate Siesta version in published work: v4.1.5-1-g384057250
cite: This calculation has made use of the following articles
cite: which are encouraged to be cited in a published work.
        Primary SIESTA paper
          DOI: www.doi.org/10.1088/0953-8984/14/11/302
 

timer: Elapsed wall time (sec) =      70.694
timer: CPU execution times (sec):

Routine            Calls   Time/call    Tot.time        %
siesta                 1      70.432      70.432   100.00
Setup                  1       0.230       0.230     0.33
bands                  1       0.000       0.000     0.00
KSV_init               1       0.000       0.000     0.00
IterGeom               7      10.029      70.200    99.67
state_init             7       0.030       0.211     0.30
hsparse                7       0.000       0.001     0.00
overlap                7       0.029       0.203     0.29
Setup_H0               7       1.045       7.312    10.38
naefs                 14       0.000       0.001     0.00
MolMec                14       0.000       0.000     0.00
kinefsm               14       0.013       0.183     0.26
nlefsm                14       0.045       0.628     0.89
DHSCF_Init             7       0.931       6.517     9.25
DHSCF1                 7       0.056       0.391     0.56
INITMESH               7       0.000       0.000     0.00
DHSCF2                 7       0.875       6.126     8.70
REMESH                 7       0.019       0.130     0.18
REORD                202       0.010       1.996     2.83
PHION                  7       0.351       2.460     3.49
COMM_BSC             313       0.007       2.181     3.10
POISON                80       0.420      33.575    47.67
fft                  160       0.153      24.539    34.84
IterSCF               59       0.908      53.598    76.10
setup_H               66       0.811      53.532    76.00
DHSCF                 73       0.850      62.026    88.06
DHSCF3                73       0.804      58.661    83.29
rhoofd                73       0.049       3.560     5.05
XC                    73       0.105       7.693    10.92
GXC-CellXC            73       0.063       4.605     6.54
cellXC                73       0.063       4.604     6.54
vmat                  73       0.041       3.021     4.29
compute_dm            59       0.000       0.029     0.04
diagon                59       0.000       0.028     0.04
r-eigvec              59       0.000       0.023     0.03
r-buildHS             59       0.000       0.001     0.00
rdiag                 59       0.000       0.022     0.03
rdiag1                59       0.000       0.001     0.00
rdiag2                59       0.000       0.002     0.00
rdiag3                59       0.000       0.016     0.02
rdiag4                59       0.000       0.002     0.00
r-buildD              59       0.000       0.002     0.00
MIXER                 52       0.000       0.003     0.00
PostSCF                7       1.295       9.066    12.87
DHSCF4                 7       0.481       3.364     4.78
dfscf                  7       0.365       2.553     3.62
overfsm                7       0.001       0.004     0.01
state_analysis         7       0.001       0.005     0.01
siesta_move            7       0.000       0.003     0.00
Analysis               1       0.002       0.002     0.00
siesta_analysis        1       0.002       0.002     0.00
optical                1       0.000       0.000     0.00
  
>> End of run:   2-OCT-2022  20:27:09
Job completed
