Siesta Version  : v4.1.5-1-g384057250
Architecture    : unknown
Compiler version: ifort (IFORT) 2021.2.0 20210228
Compiler flags  : ifort -O2 -fPIC -fp-model source
PP flags        : -DFC_HAVE_ABORT -DSIESTA__DIAG_2STAGE -DSIESTA__MRRR
Libraries       : libsiestaLAPACK.a libsiestaBLAS.a
SERIAL version

* Running in serial mode
>> Start of run:   2-OCT-2022  20:23:14

                           ***********************       
                           *  WELCOME TO SIESTA  *       
                           ***********************       

reinit: Reading from C.fdf

reinit: -----------------------------------------------------------------------
reinit: System Name: Carbon
reinit: -----------------------------------------------------------------------
reinit: System Label: C
reinit: -----------------------------------------------------------------------

initatom: Reading input for the pseudopotentials and atomic orbitals ----------
Species number:   1 Atomic number:    6 Label: C
 
Ground state valence configuration:   2s02  2p02
Reading pseudopotential information in formatted form from C.psf

Valence configuration for pseudopotential generation:
2s( 2.00) rc: 1.25
2p( 2.00) rc: 1.25
3d( 0.00) rc: 1.25
4f( 0.00) rc: 1.25
For C, standard SIESTA heuristics set lmxkb to 3
 (one more than the basis l, including polarization orbitals).
Use PS.lmax or PS.KBprojectors blocks to override.

<basis_specs>
===============================================================================
C                    Z=   6    Mass=  12.010        Charge= 0.17977+309
Lmxo=1 Lmxkb= 3    BasisType=split      Semic=F
L=0  Nsemic=0  Cnfigmx=2
          i=1  nzeta=2  polorb=0  (2s)
            splnorm:   0.15000    
               vcte:    0.0000    
               rinn:    0.0000    
               qcoe:    0.0000    
               qyuk:    0.0000    
               qwid:   0.10000E-01
                rcs:    0.0000      0.0000    
            lambdas:    1.0000      1.0000    
L=1  Nsemic=0  Cnfigmx=2
          i=1  nzeta=2  polorb=1  (2p)
            splnorm:   0.15000    
               vcte:    0.0000    
               rinn:    0.0000    
               qcoe:    0.0000    
               qyuk:    0.0000    
               qwid:   0.10000E-01
                rcs:    0.0000      0.0000    
            lambdas:    1.0000      1.0000    
-------------------------------------------------------------------------------
L=0  Nkbl=1  erefs: 0.17977+309
L=1  Nkbl=1  erefs: 0.17977+309
L=2  Nkbl=1  erefs: 0.17977+309
L=3  Nkbl=1  erefs: 0.17977+309
===============================================================================
</basis_specs>

atom: Called for C                     (Z =   6)

read_vps: Pseudopotential generation method:
read_vps: ATM3      Troullier-Martins                       
Valence charge for ps generation:    4.00000

xc_check: Exchange-correlation functional:
xc_check: Ceperley-Alder
V l=0 = -2*Zval/r beyond r=  1.3951
V l=1 = -2*Zval/r beyond r=  1.3777
V l=2 = -2*Zval/r beyond r=  1.3777
V l=3 = -2*Zval/r beyond r=  1.3777
All V_l potentials equal beyond r=  1.2311
This should be close to max(r_c) in ps generation
All pots = -2*Zval/r beyond r=  1.3951

VLOCAL1: 99.0% of the norm of Vloc inside     28.641 Ry
VLOCAL1: 99.9% of the norm of Vloc inside     65.273 Ry
atom: Maximum radius for 4*pi*r*r*local-pseudopot. charge    1.48507
atom: Maximum radius for r*vlocal+2*Zval:    1.27815
GHOST: No ghost state for L =  0
GHOST: No ghost state for L =  1
GHOST: No ghost state for L =  2
GHOST: No ghost state for L =  3

KBgen: Kleinman-Bylander projectors: 
   l= 0   rc=  1.600766   el= -1.001946   Ekb=  7.816946   kbcos=  0.279978
   l= 1   rc=  1.620907   el= -0.398597   Ekb= -4.829535   kbcos= -0.287433
   l= 2   rc=  1.836783   el=  0.002326   Ekb= -1.327964   kbcos= -0.005365
   l= 3   rc=  1.979871   el=  0.003420   Ekb= -0.522285   kbcos= -0.000569

KBgen: Total number of Kleinman-Bylander projectors:   16
atom: -------------------------------------------------------------------------

atom: SANKEY-TYPE ORBITALS:
atom: Selected multiple-zeta basis: split     

SPLIT: Orbitals with angular momentum L= 0

SPLIT: Basis orbitals for state 2s

SPLIT: PAO cut-off radius determined from an
SPLIT: energy shift=  0.003675 Ry

   izeta = 1
                 lambda =    1.000000
                     rc =    5.120028
                 energy =   -0.998772
                kinetic =    0.858242
    potential(screened) =   -1.857014
       potential(ionic) =   -5.418547

   izeta = 2
                 rmatch =    3.518811
              splitnorm =    0.150000
                 energy =   -0.870182
                kinetic =    1.330004
    potential(screened) =   -2.200186
       potential(ionic) =   -6.017108

SPLIT: Orbitals with angular momentum L= 1

SPLIT: Basis orbitals for state 2p

SPLIT: PAO cut-off radius determined from an
SPLIT: energy shift=  0.003675 Ry

   izeta = 1
                 lambda =    1.000000
                     rc =    6.253707
                 energy =   -0.395142
                kinetic =    2.439321
    potential(screened) =   -2.834463
       potential(ionic) =   -6.264070

   izeta = 2
                 rmatch =    3.745781
              splitnorm =    0.150000
                 energy =   -0.266467
                kinetic =    3.655359
    potential(screened) =   -3.921826
       potential(ionic) =   -7.757575

POLgen: Perturbative polarization orbital with L=  2

POLgen: Polarization orbital for state 2p

   izeta = 1
                     rc =    6.253707
                 energy =    1.009535
                kinetic =    2.120051
    potential(screened) =   -1.110516
       potential(ionic) =   -3.842863
atom: Total number of Sankey-type orbitals: 13

atm_pop: Valence configuration (for local Pseudopot. screening):
 2s( 2.00)                                                            
 2p( 2.00)                                                            
Vna: chval, zval:    4.00000   4.00000

Vna:  Cut-off radius for the neutral-atom potential:   6.253707

atom: _________________________________________________________________________

prinput: Basis input ----------------------------------------------------------

PAO.BasisType split     

%block ChemicalSpeciesLabel
    1    6 C                       # Species index, atomic number, species label
%endblock ChemicalSpeciesLabel

%block PAO.Basis                 # Define Basis set
C                     2                    # Species label, number of l-shells
 n=2   0   2                         # n, l, Nzeta 
   5.120      3.519   
   1.000      1.000   
 n=2   1   2 P   1                   # n, l, Nzeta, Polarization, NzetaPol
   6.254      3.746   
   1.000      1.000   
%endblock PAO.Basis

prinput: ----------------------------------------------------------------------

coor:   Atomic-coordinates input format  =     Cartesian coordinates
coor:                                          (in Angstroms)

siesta: Atomic coordinates (Bohr) and species
siesta:      0.63433   0.00000   0.00000  1        1
siesta:      3.18042   0.00000   0.00000  1        2

siesta: System type = molecule  

initatomlists: Number of atoms, orbitals, and projectors:      2    26    32

siesta: ******************** Simulation parameters ****************************
siesta:
siesta: The following are some of the parameters of the simulation.
siesta: A complete list of the parameters used, including default values,
siesta: can be found in file out.fdf
siesta:
redata: Spin configuration                          = none
redata: Number of spin components                   = 1
redata: Time-Reversal Symmetry                      = T
redata: Spin spiral                                 = F
redata: Long output                                 =   F
redata: Number of Atomic Species                    =        1
redata: Charge density info will appear in .RHO file
redata: Write Mulliken Pop.                         = NO
redata: Matel table size (NRTAB)                    =     1024
redata: Mesh Cutoff                                 =   200.0000 Ry
redata: Net charge of the system                    =     0.0000 |e|
redata: Min. number of SCF Iter                     =        0
redata: Max. number of SCF Iter                     =      200
redata: SCF convergence failure will abort job
redata: SCF mix quantity                            = Hamiltonian
redata: Mix DM or H after convergence               =   F
redata: Recompute H after scf cycle                 =   F
redata: Mix DM in first SCF step                    =   T
redata: Write Pulay info on disk                    =   F
redata: New DM Occupancy tolerance                  = 0.000000000001
redata: No kicks to SCF
redata: DM Mixing Weight for Kicks                  =     0.5000
redata: Require Harris convergence for SCF          =   F
redata: Harris energy tolerance for SCF             =     0.000100 eV
redata: Require DM convergence for SCF              =   T
redata: DM tolerance for SCF                        =     0.000100
redata: Require EDM convergence for SCF             =   F
redata: EDM tolerance for SCF                       =     0.001000 eV
redata: Require H convergence for SCF               =   T
redata: Hamiltonian tolerance for SCF               =     0.001000 eV
redata: Require (free) Energy convergence for SCF   =   F
redata: (free) Energy tolerance for SCF             =     0.000100 eV
redata: Using Saved Data (generic)                  =   F
redata: Use continuation files for DM               =   F
redata: Neglect nonoverlap interactions             =   F
redata: Method of Calculation                       = Diagonalization
redata: Electronic Temperature                      =   299.9978 K
redata: Fix the spin of the system                  =   F
redata: Dynamics option                             = CG coord. optimization
redata: Variable cell                               =   F
redata: Use continuation files for CG               =   F
redata: Max atomic displ per move                   =     0.0529 Ang
redata: Maximum number of optimization moves        =      150
redata: Force tolerance                             =     0.0400 eV/Ang
mix.SCF: Pulay mixing                            = Pulay
mix.SCF:    Variant                              = stable
mix.SCF:    History steps                        = 5
mix.SCF:    Linear mixing weight                 =     0.100000
mix.SCF:    Mixing weight                        =     0.100000
mix.SCF:    SVD condition                        = 0.1000E-07
redata: ***********************************************************************

%block SCF.Mixers
  Pulay
%endblock SCF.Mixers

%block SCF.Mixer.Pulay
  # Mixing method
  method pulay
  variant stable

  # Mixing options
  weight 0.1000
  weight.linear 0.1000
  history 5
%endblock SCF.Mixer.Pulay
 
DM_history_depth set to one: no extrapolation allowed by default for geometry relaxation
Size of DM history Fstack: 1
Total number of electrons:     8.000000
Total ionic charge:     8.000000
 Kpoints in:            1 . Kpoints trimmed:            1

siesta: k-grid: Number of k-points =     1
siesta: k-grid: Cutoff (effective) =     8.500 Ang
siesta: k-grid: Supercell and displacements
siesta: k-grid:    1   0   0      0.000
siesta: k-grid:    0   1   0      0.000
siesta: k-grid:    0   0   1      0.000
 
diag: Algorithm                                     = D&C
diag: Used triangular part                          = Lower
diag: Absolute tolerance                            =  0.100E-15
diag: Orthogonalization factor                      =  0.100E-05
diag: Memory factor                                 =  1.0000
 
siesta: Constraints using custom constr routine
 
ts: **************************************************************
ts: Save H and S matrices                           =    F
ts: Save DM and EDM matrices                        =    F
ts: Only save the overlap matrix S                  =    F
ts: **************************************************************
 
************************ Begin: TS CHECKS AND WARNINGS ************************
************************ End: TS CHECKS AND WARNINGS **************************


                     ====================================
                        Begin CG opt. move =      0
                     ====================================

outcell: Unit cell vectors (Ang):
       17.000000    0.000000    0.000000
        0.000000   17.000000    0.000000
        0.000000    0.000000   17.000000

outcell: Cell vector modules (Ang)   :   17.000000   17.000000   17.000000
outcell: Cell angles (23,13,12) (deg):     90.0000     90.0000     90.0000
outcell: Cell volume (Ang**3)        :   4913.0000
<dSpData1D:S at geom step 0
  <sparsity:sparsity for geom step 0
    nrows_g=26 nrows=26 sparsity=1.0000 nnzs=676, refcount: 7>
  <dData1D:(new from dSpData1D) n=676, refcount: 1>
refcount: 1>
new_DM -- step:     1
Initializing Density Matrix...
DM filled with atomic data:
<dSpData2D:DM initialized from atoms
  <sparsity:sparsity for geom step 0
    nrows_g=26 nrows=26 sparsity=1.0000 nnzs=676, refcount: 8>
  <dData2D:DM n=676 m=1, refcount: 1>
refcount: 1>
No. of atoms with KB's overlaping orbs in proc 0. Max # of overlaps:       2      26
New grid distribution:   1
           1       1:   75    1:   75    1:   75

InitMesh: MESH =   150 x   150 x   150 =     3375000
InitMesh: (bp) =    75 x    75 x    75 =      421875
InitMesh: Mesh cutoff (required, used) =   200.000   215.172 Ry
ExtMesh (bp) on 0 =   135 x   135 x   135 =     2460375
PhiOnMesh: Number of (b)points on node 0 =               421875
PhiOnMesh: nlist on node 0 =               265146

stepf: Fermi-Dirac step function

siesta: Program's energy decomposition (eV):
siesta: Ebs     =       -79.925556
siesta: Eions   =       632.268963
siesta: Ena     =       221.206053
siesta: Ekin    =       193.998743
siesta: Enl     =         4.782841
siesta: Eso     =         0.000000
siesta: Edftu   =         0.000000
siesta: DEna    =        -5.029167
siesta: DUscf   =         1.696957
siesta: DUext   =         0.000000
siesta: Exc     =       -83.603198
siesta: eta*DQ  =         0.000000
siesta: Emadel  =         0.000000
siesta: Emeta   =         0.000000
siesta: Emolmec =         0.000000
siesta: Ekinion =         0.000000
siesta: Eharris =      -299.638955
siesta: Etot    =      -299.216733
siesta: FreeEng =      -299.216747

        iscf     Eharris(eV)        E_KS(eV)     FreeEng(eV)     dDmax    Ef(eV) dHmax(eV)
   scf:    1     -299.638955     -299.216733     -299.216747  1.503194 -8.605572  2.430458
timer: Routine,Calls,Time,% = IterSCF        1       1.682  42.09
   scf:    2     -299.518396     -299.370811     -299.371029  0.020639 -8.443976  1.953853
   scf:    3     -293.153538     -298.025975     -298.097700  0.878377 -7.615126  2.237154
   scf:    4     -298.134979     -298.080741     -298.152974  0.008014 -7.700786  2.104399
   scf:    5     -297.395962     -299.400129     -299.400132  0.864936 -8.015255  1.681699
   scf:    6     -299.518939     -299.460491     -299.460502  0.010958 -7.922788  1.500354
   scf:    7     -299.573627     -299.517881     -299.517941  0.009131 -7.875832  1.308835
   scf:    8     -299.621561     -299.570750     -299.571073  0.011142 -7.809672  1.103078
   scf:    9     -299.610406     -299.769752     -299.847451  0.289302 -7.760876  0.161788
   scf:   10     -298.678921     -299.440717     -299.440717  0.297622 -7.587570  1.366229
   scf:   11     -299.792249     -299.623553     -299.626041  0.033309 -7.778287  0.857142
   scf:   12     -296.724249     -299.014119     -299.111333  0.629872 -7.771537  1.308021
   scf:   13     -298.884290     -299.678756     -299.692994  0.601754 -7.759838  0.654434
   scf:   14     -298.831463     -299.578309     -299.672589  0.398210 -7.753005  0.661806
   scf:   15     -299.698753     -299.641293     -299.732769  0.036248 -7.752565  0.547034
   scf:   16     -299.404269     -299.727888     -299.757223  0.322855 -7.760022  0.491693
   scf:   17     -299.774810     -299.752774     -299.790879  0.026916 -7.759451  0.396414
   scf:   18     -299.762092     -299.757498     -299.797436  0.005789 -7.759451  0.376467
   scf:   19     -299.760321     -299.758913     -299.799416  0.001879 -7.759621  0.370145
   scf:   20     -299.777799     -299.768768     -299.813509  0.014475 -7.766144  0.324596
   scf:   21     -299.745121     -299.786364     -299.858392  0.121473 -7.784067  0.060901
   scf:   22     -299.795507     -299.791848     -299.859905  0.021584 -7.780230  0.006474
   scf:   23     -299.779336     -299.786503     -299.858477  0.021252 -7.785452  0.057040
   scf:   24     -299.794004     -299.790693     -299.859874  0.015332 -7.781482  0.010028
   scf:   25     -299.793113     -299.792007     -299.859875  0.006916 -7.780498  0.011523
   scf:   26     -299.790764     -299.791409     -299.859935  0.003442 -7.780991  0.000833
   scf:   27     -299.791305     -299.791357     -299.859935  0.000274 -7.781072  0.000028
   scf:   28     -299.791356     -299.791356     -299.859935  0.000004 -7.781080  0.000021

SCF Convergence by DM+H criterion
max |DM_out - DM_in|         :     0.0000043590
max |H_out - H_in|      (eV) :     0.0000214166
SCF cycle converged after 28 iterations

Using DM_out to compute the final energy and forces
No. of atoms with KB's overlaping orbs in proc 0. Max # of overlaps:       2      26

siesta: E_KS(eV) =             -299.7914

siesta: E_KS - E_eggbox =      -299.7914

siesta: Atomic forces (eV/Ang):
----------------------------------------
   Tot    0.001392    0.000000   -0.000000
----------------------------------------
   Max    2.560498
   Res    1.477903    sqrt( Sum f_i^2 / 3N )
----------------------------------------
   Max    9.718772    constrained

Stress tensor Voigt[x,y,z,yz,xz,xy] (kbar):        1.12        0.00        0.00       -0.00        0.00       -0.00
(Free)E + p*V (eV/cell)     -301.0094
Target enthalpy (eV/cell)     -299.8599

                     ====================================
                        Begin CG opt. move =      1
                     ====================================

outcell: Unit cell vectors (Ang):
       17.000000    0.000000    0.000000
        0.000000   17.000000    0.000000
        0.000000    0.000000   17.000000

outcell: Cell vector modules (Ang)   :   17.000000   17.000000   17.000000
outcell: Cell angles (23,13,12) (deg):     90.0000     90.0000     90.0000
outcell: Cell volume (Ang**3)        :   4913.0000
<dSpData1D:S at geom step 1
  <sparsity:sparsity for geom step 1
    nrows_g=26 nrows=26 sparsity=1.0000 nnzs=676, refcount: 7>
  <dData1D:(new from dSpData1D) n=676, refcount: 1>
refcount: 1>
new_DM -- step:     2
Re-using DM from previous geometries...
Number of DMs in history: 1
 DM extrapolation coefficients: 
1   1.00000
New DM after history re-use:
<dSpData2D:SpM extrapolated using coords
  <sparsity:sparsity for geom step 1
    nrows_g=26 nrows=26 sparsity=1.0000 nnzs=676, refcount: 9>
  <dData2D:(temp array for extrapolation) n=676 m=1, refcount: 1>
refcount: 1>
Note: For starting DM, Qtot, Tr[D*S] =          8.00000000          8.13458621
No. of atoms with KB's overlaping orbs in proc 0. Max # of overlaps:       2      26
New grid distribution:   1
           1       1:   75    1:   75    1:   75

InitMesh: MESH =   150 x   150 x   150 =     3375000
InitMesh: (bp) =    75 x    75 x    75 =      421875
InitMesh: Mesh cutoff (required, used) =   200.000   215.172 Ry
ExtMesh (bp) on 0 =   135 x   135 x   135 =     2460375
PhiOnMesh: Number of (b)points on node 0 =               421875
PhiOnMesh: nlist on node 0 =               264964

        iscf     Eharris(eV)        E_KS(eV)     FreeEng(eV)     dDmax    Ef(eV) dHmax(eV)
   scf:    1     -299.437537     -299.808747     -299.810317  0.279385 -8.170873  0.846748
   scf:    2     -291.436467     -297.297842     -297.369524  0.876592 -7.478010  2.862902
   scf:    3     -299.523057     -299.863441     -299.878448  0.832944 -8.004170  0.376293
   scf:    4     -299.782295     -299.857312     -299.911470  0.132447 -7.903898  0.164081
   scf:    5     -299.887145     -299.877681     -299.918246  0.053261 -7.925187  0.041990
   scf:    6     -299.867194     -299.873063     -299.918823  0.019209 -7.912391  0.021156
   scf:    7     -299.874269     -299.873674     -299.918907  0.002035 -7.913623  0.013701
   scf:    8     -299.874857     -299.874274     -299.918957  0.002206 -7.916379  0.004966
   scf:    9     -299.874948     -299.874614     -299.918967  0.001214 -7.916461  0.000778
   scf:   10     -299.874806     -299.874710     -299.918967  0.000355 -7.916577  0.000217
   scf:   11     -299.874677     -299.874694     -299.918967  0.000065 -7.916615  0.000008

SCF Convergence by DM+H criterion
max |DM_out - DM_in|         :     0.0000654375
max |H_out - H_in|      (eV) :     0.0000081990
SCF cycle converged after 11 iterations

Using DM_out to compute the final energy and forces
No. of atoms with KB's overlaping orbs in proc 0. Max # of overlaps:       2      26

siesta: E_KS(eV) =             -299.8747

siesta: Atomic forces (eV/Ang):
----------------------------------------
   Tot   -0.000343    0.000000   -0.000000
----------------------------------------
   Max    1.296580
   Res    0.748482    sqrt( Sum f_i^2 / 3N )
----------------------------------------
   Max    2.225918    constrained

Stress tensor Voigt[x,y,z,yz,xz,xy] (kbar):       -0.54        0.00        0.00       -0.00       -0.00        0.00
(Free)E + p*V (eV/cell)     -299.3692
Target enthalpy (eV/cell)     -299.9190

                     ====================================
                        Begin CG opt. move =      2
                     ====================================

outcell: Unit cell vectors (Ang):
       17.000000    0.000000    0.000000
        0.000000   17.000000    0.000000
        0.000000    0.000000   17.000000

outcell: Cell vector modules (Ang)   :   17.000000   17.000000   17.000000
outcell: Cell angles (23,13,12) (deg):     90.0000     90.0000     90.0000
outcell: Cell volume (Ang**3)        :   4913.0000
<dSpData1D:S at geom step 2
  <sparsity:sparsity for geom step 2
    nrows_g=26 nrows=26 sparsity=1.0000 nnzs=676, refcount: 7>
  <dData1D:(new from dSpData1D) n=676, refcount: 1>
refcount: 1>
new_DM -- step:     3
Re-using DM from previous geometries...
Number of DMs in history: 1
 DM extrapolation coefficients: 
1   1.00000
New DM after history re-use:
<dSpData2D:SpM extrapolated using coords
  <sparsity:sparsity for geom step 2
    nrows_g=26 nrows=26 sparsity=1.0000 nnzs=676, refcount: 9>
  <dData2D:(temp array for extrapolation) n=676 m=1, refcount: 1>
refcount: 1>
Note: For starting DM, Qtot, Tr[D*S] =          8.00000000          8.20358899
No. of atoms with KB's overlaping orbs in proc 0. Max # of overlaps:       2      26
New grid distribution:   1
           1       1:   75    1:   75    1:   75

InitMesh: MESH =   150 x   150 x   150 =     3375000
InitMesh: (bp) =    75 x    75 x    75 =      421875
InitMesh: Mesh cutoff (required, used) =   200.000   215.172 Ry
ExtMesh (bp) on 0 =   135 x   135 x   135 =     2460375
PhiOnMesh: Number of (b)points on node 0 =               421875
PhiOnMesh: nlist on node 0 =               265229

        iscf     Eharris(eV)        E_KS(eV)     FreeEng(eV)     dDmax    Ef(eV) dHmax(eV)
   scf:    1     -299.035682     -299.238710     -299.238726  0.204629 -8.586814  1.339580
   scf:    2     -299.005927     -299.199549     -299.222643  0.112065 -7.659729  1.296376
   scf:    3     -299.365152     -299.308327     -299.309160  0.079238 -8.117198  0.061806
   scf:    4     -299.308435     -299.308383     -299.309263  0.000448 -8.112363  0.053394
   scf:    5     -299.297319     -299.303415     -299.308442  0.011356 -8.098689  0.085267
   scf:    6     -299.306997     -299.305225     -299.309009  0.002431 -8.088630  0.067726
   scf:    7     -299.309827     -299.307639     -299.309656  0.005148 -8.103162  0.005328
   scf:    8     -299.307899     -299.307770     -299.309660  0.000385 -8.103620  0.000143
   scf:    9     -299.307776     -299.307773     -299.309660  0.000010 -8.103627  0.000082

SCF Convergence by DM+H criterion
max |DM_out - DM_in|         :     0.0000104738
max |H_out - H_in|      (eV) :     0.0000820466
SCF cycle converged after 9 iterations

Using DM_out to compute the final energy and forces
No. of atoms with KB's overlaping orbs in proc 0. Max # of overlaps:       2      26

siesta: E_KS(eV) =             -299.3078

siesta: Atomic forces (eV/Ang):
----------------------------------------
   Tot   -0.001104   -0.000000    0.000000
----------------------------------------
   Max   11.477609
   Res    6.626282    sqrt( Sum f_i^2 / 3N )
----------------------------------------
   Max   13.097336    constrained

Stress tensor Voigt[x,y,z,yz,xz,xy] (kbar):       -4.37        0.00        0.00        0.00       -0.00        0.00
(Free)E + p*V (eV/cell)     -294.8471
Target enthalpy (eV/cell)     -299.3097

                     ====================================
                        Begin CG opt. move =      3
                     ====================================

outcell: Unit cell vectors (Ang):
       17.000000    0.000000    0.000000
        0.000000   17.000000    0.000000
        0.000000    0.000000   17.000000

outcell: Cell vector modules (Ang)   :   17.000000   17.000000   17.000000
outcell: Cell angles (23,13,12) (deg):     90.0000     90.0000     90.0000
outcell: Cell volume (Ang**3)        :   4913.0000
<dSpData1D:S at geom step 3
  <sparsity:sparsity for geom step 3
    nrows_g=26 nrows=26 sparsity=1.0000 nnzs=676, refcount: 7>
  <dData1D:(new from dSpData1D) n=676, refcount: 1>
refcount: 1>
new_DM -- step:     4
Re-using DM from previous geometries...
Number of DMs in history: 1
 DM extrapolation coefficients: 
1   1.00000
New DM after history re-use:
<dSpData2D:SpM extrapolated using coords
  <sparsity:sparsity for geom step 3
    nrows_g=26 nrows=26 sparsity=1.0000 nnzs=676, refcount: 9>
  <dData2D:(temp array for extrapolation) n=676 m=1, refcount: 1>
refcount: 1>
Note: For starting DM, Qtot, Tr[D*S] =          8.00000000          7.81399511
No. of atoms with KB's overlaping orbs in proc 0. Max # of overlaps:       2      26
New grid distribution:   1
           1       1:   75    1:   75    1:   75

InitMesh: MESH =   150 x   150 x   150 =     3375000
InitMesh: (bp) =    75 x    75 x    75 =      421875
InitMesh: Mesh cutoff (required, used) =   200.000   215.172 Ry
ExtMesh (bp) on 0 =   135 x   135 x   135 =     2460375
PhiOnMesh: Number of (b)points on node 0 =               421875
PhiOnMesh: nlist on node 0 =               265020

        iscf     Eharris(eV)        E_KS(eV)     FreeEng(eV)     dDmax    Ef(eV) dHmax(eV)
   scf:    1     -292.473608     -297.454121     -297.534938  0.894754 -7.502729  2.621635
   scf:    2     -294.638848     -298.443003     -298.443003  1.018796 -7.954983  3.822479
   scf:    3     -300.661188     -299.658483     -299.658483  0.116982 -7.907977  1.369933
   scf:    4     -299.743445     -299.701505     -299.701505  0.008895 -7.877206  1.203035
   scf:    5     -299.878227     -299.792851     -299.792898  0.022403 -7.969459  0.785079
   scf:    6     -299.894638     -299.858973     -299.879813  0.070714 -7.890190  0.122801
   scf:    7     -291.703232     -297.180760     -297.252527  0.801543 -7.702192  2.756855
   scf:    8     -299.469707     -299.839519     -299.842387  0.848592 -7.922326  0.422933
   scf:    9     -299.825684     -299.832703     -299.833921  0.005689 -7.918544  0.484081
   scf:   10     -299.871702     -299.855093     -299.869735  0.034632 -7.922643  0.240689
   scf:   11     -299.860345     -299.858654     -299.881752  0.021909 -7.923559  0.149731
   scf:   12     -299.825798     -299.845987     -299.851771  0.042894 -7.919844  0.355409
   scf:   13     -291.959590     -297.353069     -297.428354  0.827064 -7.888179  2.450260
   scf:   14     -300.640810     -299.693920     -299.768696  0.572959 -7.927329  0.546007
   scf:   15     -298.944105     -299.363848     -299.456185  0.149271 -7.927038  1.017005
   scf:   16     -299.588718     -299.480238     -299.568617  0.043882 -7.923885  0.877029
   scf:   17     -299.936700     -299.748808     -299.817161  0.142908 -7.924740  0.426323
   scf:   18     -299.894388     -299.840790     -299.886986  0.100274 -7.928469  0.104075
   scf:   19     -299.860471     -299.851893     -299.890892  0.025888 -7.930242  0.029240
   scf:   20     -299.854060     -299.852999     -299.890964  0.003440 -7.930657  0.025781
   scf:   21     -299.790202     -299.826797     -299.878751  0.051910 -7.928997  0.179211
   scf:   22     -299.855494     -299.858554     -299.882138  0.095670 -7.934452  0.151352
   scf:   23     -299.857452     -299.858058     -299.879803  0.005062 -7.939461  0.173946
   scf:   24     -299.819895     -299.847065     -299.889774  0.065240 -7.943813  0.054788
   scf:   25     -299.824571     -299.836645     -299.884884  0.020675 -7.944436  0.122685
   scf:   26     -299.863444     -299.858358     -299.886998  0.066244 -7.941350  0.101884
   scf:   27     -299.842710     -299.852404     -299.890962  0.031388 -7.942923  0.006828
   scf:   28     -299.850187     -299.851316     -299.890852  0.003330 -7.943201  0.017950
   scf:   29     -299.849334     -299.850340     -299.890683  0.002816 -7.943483  0.027231
   scf:   30     -299.856016     -299.853338     -299.890975  0.009180 -7.942980  0.003661
   scf:   31     -299.852534     -299.852940     -299.890980  0.001347 -7.943047  0.000902
   scf:   32     -299.853094     -299.853017     -299.890981  0.000258 -7.943037  0.000029
   scf:   33     -299.853017     -299.853017     -299.890981  0.000005 -7.943039  0.000018

SCF Convergence by DM+H criterion
max |DM_out - DM_in|         :     0.0000046875
max |H_out - H_in|      (eV) :     0.0000180040
SCF cycle converged after 33 iterations

Using DM_out to compute the final energy and forces
No. of atoms with KB's overlaping orbs in proc 0. Max # of overlaps:       2      26

siesta: E_KS(eV) =             -299.8530

siesta: Atomic forces (eV/Ang):
----------------------------------------
   Tot   -0.001701    0.000000   -0.000000
----------------------------------------
   Max    2.355446
   Res    1.359427    sqrt( Sum f_i^2 / 3N )
----------------------------------------
   Max    0.421501    constrained

Stress tensor Voigt[x,y,z,yz,xz,xy] (kbar):       -0.96        0.00        0.00       -0.00       -0.00        0.00
(Free)E + p*V (eV/cell)     -298.9052
Target enthalpy (eV/cell)     -299.8910

cgvc: Finished line minimization    1.  Mean atomic displacement =    0.0852

                     ====================================
                        Begin CG opt. move =      4
                     ====================================

outcell: Unit cell vectors (Ang):
       17.000000    0.000000    0.000000
        0.000000   17.000000    0.000000
        0.000000    0.000000   17.000000

outcell: Cell vector modules (Ang)   :   17.000000   17.000000   17.000000
outcell: Cell angles (23,13,12) (deg):     90.0000     90.0000     90.0000
outcell: Cell volume (Ang**3)        :   4913.0000
<dSpData1D:S at geom step 4
  <sparsity:sparsity for geom step 4
    nrows_g=26 nrows=26 sparsity=1.0000 nnzs=676, refcount: 7>
  <dData1D:(new from dSpData1D) n=676, refcount: 1>
refcount: 1>
new_DM -- step:     5
Re-using DM from previous geometries...
Number of DMs in history: 1
 DM extrapolation coefficients: 
1   1.00000
New DM after history re-use:
<dSpData2D:SpM extrapolated using coords
  <sparsity:sparsity for geom step 4
    nrows_g=26 nrows=26 sparsity=1.0000 nnzs=676, refcount: 9>
  <dData2D:(temp array for extrapolation) n=676 m=1, refcount: 1>
refcount: 1>
Note: For starting DM, Qtot, Tr[D*S] =          8.00000000          8.17589452
No. of atoms with KB's overlaping orbs in proc 0. Max # of overlaps:       2      26
New grid distribution:   1
           1       1:   75    1:   75    1:   75

InitMesh: MESH =   150 x   150 x   150 =     3375000
InitMesh: (bp) =    75 x    75 x    75 =      421875
InitMesh: Mesh cutoff (required, used) =   200.000   215.172 Ry
ExtMesh (bp) on 0 =   135 x   135 x   135 =     2460375
PhiOnMesh: Number of (b)points on node 0 =               421875
PhiOnMesh: nlist on node 0 =               265329

        iscf     Eharris(eV)        E_KS(eV)     FreeEng(eV)     dDmax    Ef(eV) dHmax(eV)
   scf:    1     -299.116209     -299.260744     -299.260784  0.170177 -8.521369  1.165105
   scf:    2     -299.105237     -299.237435     -299.254690  0.088206 -7.716961  1.117716
   scf:    3     -299.353474     -299.312336     -299.313420  0.059283 -8.111136  0.043753
   scf:    4     -299.312347     -299.312342     -299.313444  0.000136 -8.109711  0.041368
   scf:    5     -299.310269     -299.311390     -299.313661  0.003719 -8.102872  0.015420
   scf:    6     -299.311193     -299.311292     -299.313640  0.000328 -8.098913  0.020301
   scf:    7     -299.312380     -299.311848     -299.313680  0.001727 -8.103312  0.003998
   scf:    8     -299.311650     -299.311749     -299.313682  0.000274 -8.102884  0.000094
   scf:    9     -299.311746     -299.311747     -299.313682  0.000005 -8.102887  0.000109

SCF Convergence by DM+H criterion
max |DM_out - DM_in|         :     0.0000048570
max |H_out - H_in|      (eV) :     0.0001085464
SCF cycle converged after 9 iterations

Using DM_out to compute the final energy and forces
No. of atoms with KB's overlaping orbs in proc 0. Max # of overlaps:       2      26

siesta: E_KS(eV) =             -299.3117

siesta: Atomic forces (eV/Ang):
----------------------------------------
   Tot   -0.001970   -0.000000    0.000000
----------------------------------------
   Max   11.430066
   Res    6.598583    sqrt( Sum f_i^2 / 3N )
----------------------------------------
   Max   13.032746    constrained

Stress tensor Voigt[x,y,z,yz,xz,xy] (kbar):       -4.35        0.00        0.00        0.00       -0.00        0.00
(Free)E + p*V (eV/cell)     -294.8681
Target enthalpy (eV/cell)     -299.3137

                     ====================================
                        Begin CG opt. move =      5
                     ====================================

outcell: Unit cell vectors (Ang):
       17.000000    0.000000    0.000000
        0.000000   17.000000    0.000000
        0.000000    0.000000   17.000000

outcell: Cell vector modules (Ang)   :   17.000000   17.000000   17.000000
outcell: Cell angles (23,13,12) (deg):     90.0000     90.0000     90.0000
outcell: Cell volume (Ang**3)        :   4913.0000
<dSpData1D:S at geom step 5
  <sparsity:sparsity for geom step 5
    nrows_g=26 nrows=26 sparsity=1.0000 nnzs=676, refcount: 7>
  <dData1D:(new from dSpData1D) n=676, refcount: 1>
refcount: 1>
new_DM -- step:     6
Re-using DM from previous geometries...
Number of DMs in history: 1
 DM extrapolation coefficients: 
1   1.00000
New DM after history re-use:
<dSpData2D:SpM extrapolated using coords
  <sparsity:sparsity for geom step 5
    nrows_g=26 nrows=26 sparsity=1.0000 nnzs=676, refcount: 9>
  <dData2D:(temp array for extrapolation) n=676 m=1, refcount: 1>
refcount: 1>
Note: For starting DM, Qtot, Tr[D*S] =          8.00000000          7.82052780
No. of atoms with KB's overlaping orbs in proc 0. Max # of overlaps:       2      26
New grid distribution:   1
           1       1:   75    1:   75    1:   75

InitMesh: MESH =   150 x   150 x   150 =     3375000
InitMesh: (bp) =    75 x    75 x    75 =      421875
InitMesh: Mesh cutoff (required, used) =   200.000   215.172 Ry
ExtMesh (bp) on 0 =   135 x   135 x   135 =     2460375
PhiOnMesh: Number of (b)points on node 0 =               421875
PhiOnMesh: nlist on node 0 =               265044

        iscf     Eharris(eV)        E_KS(eV)     FreeEng(eV)     dDmax    Ef(eV) dHmax(eV)
   scf:    1     -292.714942     -297.523648     -297.607238  0.876486 -7.524813  2.569837
   scf:    2     -294.847587     -298.491624     -298.491624  0.999919 -7.899807  3.751309
   scf:    3     -300.626903     -299.661755     -299.661755  0.115036 -7.919635  1.344611
   scf:    4     -299.747245     -299.705074     -299.705074  0.009171 -7.887450  1.172651
   scf:    5     -299.872003     -299.791345     -299.791396  0.021765 -7.975936  0.767094
   scf:    6     -299.888064     -299.853417     -299.872724  0.066309 -7.897423  0.128112
   scf:    7     -291.751553     -297.193031     -297.265382  0.806235 -7.754186  2.683389
   scf:    8     -299.494865     -299.835807     -299.838633  0.849376 -7.929920  0.412927
   scf:    9     -299.818721     -299.827410     -299.828370  0.006880 -7.926004  0.490066
   scf:   10     -299.867548     -299.851462     -299.868055  0.040836 -7.929846  0.207345
   scf:   11     -299.853596     -299.852663     -299.872481  0.008301 -7.930081  0.172416
   scf:   12     -299.843605     -299.848854     -299.861067  0.018836 -7.928915  0.255865
   scf:   13     -292.323704     -297.425590     -297.504450  0.798640 -7.900707  2.395223
   scf:   14     -300.475388     -299.779053     -299.840602  0.631550 -7.930781  0.331555
   scf:   15     -299.871235     -299.851836     -299.882279  0.118855 -7.931969  0.061813
   scf:   16     -299.842392     -299.850554     -299.865537  0.042038 -7.930837  0.227448
   scf:   17     -299.851073     -299.850816     -299.866285  0.001501 -7.930184  0.222206
   scf:   18     -299.812795     -299.842440     -299.883143  0.074263 -7.931632  0.052736
   scf:   19     -299.689978     -299.800874     -299.800928  0.124665 -7.924838  0.688510
   scf:   20     -292.578589     -297.600848     -297.684552  0.815354 -7.910275  2.292817
   scf:   21     -299.410959     -299.822120     -299.822649  0.805354 -7.926040  0.536136
   scf:   22     -299.843324     -299.832938     -299.834906  0.006994 -7.928070  0.440955
   scf:   23     -299.836129     -299.834540     -299.836939  0.001486 -7.927877  0.425329
   scf:   24     -299.763985     -299.831958     -299.878469  0.127129 -7.931713  0.123531
   scf:   25     -299.750055     -299.827102     -299.828061  0.132749 -7.926894  0.494187
   scf:   26     -292.638082     -297.591876     -297.675355  0.803808 -7.910341  2.298137
   scf:   27     -299.519183     -299.836215     -299.839164  0.796528 -7.928312  0.408645
   scf:   28     -299.791286     -299.814509     -299.814733  0.013971 -7.925360  0.595106
   scf:   29     -299.802743     -299.808659     -299.808778  0.002509 -7.924575  0.636938
   scf:   30     -299.871859     -299.853181     -299.878253  0.072178 -7.930921  0.119468
   scf:   31     -299.818612     -299.840977     -299.846190  0.049823 -7.929020  0.358233
   scf:   32     -292.411163     -297.489513     -297.570254  0.806044 -7.904878  2.358063
   scf:   33     -299.502075     -299.835058     -299.837613  0.813090 -7.928029  0.420227
   scf:   34     -299.838965     -299.837024     -299.840275  0.002035 -7.928233  0.400363
   scf:   35     -299.848019     -299.842678     -299.849007  0.007764 -7.929129  0.338852
   scf:   36     -299.857954     -299.851968     -299.869903  0.027986 -7.930823  0.195350
   scf:   37     -299.843400     -299.850856     -299.883176  0.040425 -7.931659  0.041533
   scf:   38     -293.127935     -297.578754     -297.661903  0.721481 -7.910143  2.306084
   scf:   39     -299.794166     -299.852256     -299.870977  0.759909 -7.931040  0.186939
   scf:   40     -299.853581     -299.853145     -299.875972  0.010874 -7.931292  0.143243
   scf:   41     -299.852391     -299.852832     -299.873589  0.005547 -7.931151  0.165175
   scf:   42     -299.852577     -299.852708     -299.872942  0.001382 -7.931173  0.170748
   scf:   43     -299.852263     -299.852494     -299.871949  0.002026 -7.931062  0.179025
   scf:   44     -291.910858     -297.252227     -297.325369  0.799187 -7.887771  2.517723
   scf:   45     -299.808348     -299.852568     -299.872261  0.798541 -7.930636  0.176303
   scf:   46     -299.853305     -299.852981     -299.874478  0.004663 -7.930913  0.157169
   scf:   47     -299.852911     -299.852946     -299.874247  0.000491 -7.930696  0.159227
   scf:   48     -299.853169     -299.853061     -299.875095  0.002100 -7.931148  0.151293
   scf:   49     -299.853178     -299.853125     -299.875810  0.001740 -7.931921  0.145002
   scf:   50     -299.817858     -299.841735     -299.882950  0.056240 -7.947821  0.055215
   scf:   51     -299.676953     -299.774307     -299.836793  0.087474 -7.946813  0.341756
   scf:   52     -299.877185     -299.849675     -299.883698  0.111739 -7.949212  0.027925
   scf:   53     -299.852687     -299.851305     -299.882754  0.008140 -7.947752  0.056367
   scf:   54     -299.848304     -299.849898     -299.883609  0.006894 -7.948539  0.032147
   scf:   55     -299.794530     -299.827391     -299.875986  0.051955 -7.952607  0.139850
   scf:   56     -299.860725     -299.852153     -299.881566  0.063837 -7.946262  0.079946
   scf:   57     -299.851535     -299.851857     -299.882036  0.002193 -7.946714  0.072061
   scf:   58     -299.851798     -299.851828     -299.882087  0.000374 -7.946511  0.070913
   scf:   59     -299.847716     -299.849978     -299.883558  0.010071 -7.947263  0.035396
   scf:   60     -299.844566     -299.847450     -299.884039  0.009550 -7.947822  0.002155
   scf:   61     -299.847180     -299.847315     -299.884041  0.000455 -7.947879  0.000581
   scf:   62     -299.847198     -299.847257     -299.884041  0.000264 -7.947995  0.000324
   scf:   63     -299.847414     -299.847336     -299.884041  0.000311 -7.947924  0.000582
   scf:   64     -299.847261     -299.847299     -299.884041  0.000159 -7.947878  0.000169
   scf:   65     -299.847286     -299.847293     -299.884041  0.000051 -7.947852  0.000111

SCF Convergence by DM+H criterion
max |DM_out - DM_in|         :     0.0000508216
max |H_out - H_in|      (eV) :     0.0001109560
SCF cycle converged after 65 iterations

Using DM_out to compute the final energy and forces
No. of atoms with KB's overlaping orbs in proc 0. Max # of overlaps:       2      26

siesta: E_KS(eV) =             -299.8473

siesta: Atomic forces (eV/Ang):
----------------------------------------
   Tot   -0.001725   -0.000000   -0.000000
----------------------------------------
   Max    2.561181
   Res    1.478201    sqrt( Sum f_i^2 / 3N )
----------------------------------------
   Max    0.078881    constrained

Stress tensor Voigt[x,y,z,yz,xz,xy] (kbar):       -1.05        0.00        0.00        0.00        0.00        0.00
(Free)E + p*V (eV/cell)     -298.8146
Target enthalpy (eV/cell)     -299.8840

cgvc: Finished line minimization    2.  Mean atomic displacement =    0.0027

                     ====================================
                        Begin CG opt. move =      6
                     ====================================

outcell: Unit cell vectors (Ang):
       17.000000    0.000000    0.000000
        0.000000   17.000000    0.000000
        0.000000    0.000000   17.000000

outcell: Cell vector modules (Ang)   :   17.000000   17.000000   17.000000
outcell: Cell angles (23,13,12) (deg):     90.0000     90.0000     90.0000
outcell: Cell volume (Ang**3)        :   4913.0000
<dSpData1D:S at geom step 6
  <sparsity:sparsity for geom step 6
    nrows_g=26 nrows=26 sparsity=1.0000 nnzs=676, refcount: 7>
  <dData1D:(new from dSpData1D) n=676, refcount: 1>
refcount: 1>
new_DM -- step:     7
Re-using DM from previous geometries...
Number of DMs in history: 1
 DM extrapolation coefficients: 
1   1.00000
New DM after history re-use:
<dSpData2D:SpM extrapolated using coords
  <sparsity:sparsity for geom step 6
    nrows_g=26 nrows=26 sparsity=1.0000 nnzs=676, refcount: 9>
  <dData2D:(temp array for extrapolation) n=676 m=1, refcount: 1>
refcount: 1>
No. of atoms with KB's overlaping orbs in proc 0. Max # of overlaps:       2      26
New grid distribution:   1
           1       1:   75    1:   75    1:   75

InitMesh: MESH =   150 x   150 x   150 =     3375000
InitMesh: (bp) =    75 x    75 x    75 =      421875
InitMesh: Mesh cutoff (required, used) =   200.000   215.172 Ry
ExtMesh (bp) on 0 =   135 x   135 x   135 =     2460375
PhiOnMesh: Number of (b)points on node 0 =               421875
PhiOnMesh: nlist on node 0 =               265033

        iscf     Eharris(eV)        E_KS(eV)     FreeEng(eV)     dDmax    Ef(eV) dHmax(eV)
   scf:    1     -299.843040     -299.844060     -299.875739  0.018155 -7.964304  0.052683
   scf:    2     -299.697251     -299.788510     -299.845603  0.095898 -7.934228  0.293443
   scf:    3     -299.866716     -299.841639     -299.876490  0.085568 -7.958176  0.016130
   scf:    4     -299.837661     -299.839729     -299.876451  0.006400 -7.952957  0.014021
   scf:    5     -299.842435     -299.841118     -299.876522  0.004284 -7.952602  0.001385
   scf:    6     -299.841033     -299.841075     -299.876522  0.000139 -7.952581  0.000877
   scf:    7     -299.840828     -299.840952     -299.876522  0.000386 -7.952660  0.000460
   scf:    8     -299.841045     -299.840999     -299.876522  0.000147 -7.952644  0.000050
   scf:    9     -299.840991     -299.840995     -299.876522  0.000015 -7.952651  0.000001

SCF Convergence by DM+H criterion
max |DM_out - DM_in|         :     0.0000146970
max |H_out - H_in|      (eV) :     0.0000008339
SCF cycle converged after 9 iterations

Using DM_out to compute the final energy and forces
No. of atoms with KB's overlaping orbs in proc 0. Max # of overlaps:       2      26

siesta: E_KS(eV) =             -299.8410

siesta: Atomic forces (eV/Ang):
----------------------------------------
   Tot   -0.002418    0.000000    0.000000
----------------------------------------
   Max    2.772034
   Res    1.599737    sqrt( Sum f_i^2 / 3N )
----------------------------------------
   Max    0.270760    constrained

Stress tensor Voigt[x,y,z,yz,xz,xy] (kbar):       -1.13        0.00        0.00       -0.00       -0.00       -0.00
(Free)E + p*V (eV/cell)     -298.7215
Target enthalpy (eV/cell)     -299.8765

                     ====================================
                        Begin CG opt. move =      7
                     ====================================

outcell: Unit cell vectors (Ang):
       17.000000    0.000000    0.000000
        0.000000   17.000000    0.000000
        0.000000    0.000000   17.000000

outcell: Cell vector modules (Ang)   :   17.000000   17.000000   17.000000
outcell: Cell angles (23,13,12) (deg):     90.0000     90.0000     90.0000
outcell: Cell volume (Ang**3)        :   4913.0000
<dSpData1D:S at geom step 7
  <sparsity:sparsity for geom step 7
    nrows_g=26 nrows=26 sparsity=1.0000 nnzs=676, refcount: 7>
  <dData1D:(new from dSpData1D) n=676, refcount: 1>
refcount: 1>
new_DM -- step:     8
Re-using DM from previous geometries...
Number of DMs in history: 1
 DM extrapolation coefficients: 
1   1.00000
New DM after history re-use:
<dSpData2D:SpM extrapolated using coords
  <sparsity:sparsity for geom step 7
    nrows_g=26 nrows=26 sparsity=1.0000 nnzs=676, refcount: 9>
  <dData2D:(temp array for extrapolation) n=676 m=1, refcount: 1>
refcount: 1>
No. of atoms with KB's overlaping orbs in proc 0. Max # of overlaps:       2      26
New grid distribution:   1
           1       1:   75    1:   75    1:   75

InitMesh: MESH =   150 x   150 x   150 =     3375000
InitMesh: (bp) =    75 x    75 x    75 =      421875
InitMesh: Mesh cutoff (required, used) =   200.000   215.172 Ry
ExtMesh (bp) on 0 =   135 x   135 x   135 =     2460375
PhiOnMesh: Number of (b)points on node 0 =               421875
PhiOnMesh: nlist on node 0 =               265046

        iscf     Eharris(eV)        E_KS(eV)     FreeEng(eV)     dDmax    Ef(eV) dHmax(eV)
   scf:    1     -299.839883     -299.842036     -299.881790  0.015703 -7.939881  0.045353
   scf:    2     -299.848358     -299.851004     -299.873312  0.054736 -7.963642  0.172498
   scf:    3     -299.836676     -299.846958     -299.882348  0.039825 -7.945799  0.010635
   scf:    4     -299.853147     -299.850846     -299.879692  0.020314 -7.946958  0.086812
   scf:    5     -299.838850     -299.845951     -299.882404  0.023582 -7.948963  0.000303
   scf:    6     -299.845962     -299.845956     -299.882404  0.000018 -7.948955  0.000366

SCF Convergence by DM+H criterion
max |DM_out - DM_in|         :     0.0000180948
max |H_out - H_in|      (eV) :     0.0003658476
SCF cycle converged after 6 iterations

Using DM_out to compute the final energy and forces
No. of atoms with KB's overlaping orbs in proc 0. Max # of overlaps:       2      26

siesta: E_KS(eV) =             -299.8460

siesta: Atomic forces (eV/Ang):
----------------------------------------
   Tot   -0.001789   -0.000000   -0.000000
----------------------------------------
   Max    2.607544
   Res    1.504950    sqrt( Sum f_i^2 / 3N )
----------------------------------------
   Max    0.001812    constrained

Stress tensor Voigt[x,y,z,yz,xz,xy] (kbar):       -1.06        0.00        0.00       -0.00        0.00        0.00
(Free)E + p*V (eV/cell)     -298.7942
Target enthalpy (eV/cell)     -299.8824

outcoor: Relaxed atomic coordinates (Ang):                  
    0.38243665    0.00000000   -0.00000000   1       1  C
    1.63610437    0.00000000   -0.00000000   1       2  C

siesta: Program's energy decomposition (eV):
siesta: Ebs     =       -91.250602
siesta: Eions   =       632.268963
siesta: Ena     =       220.613615
siesta: Ekin    =       194.544012
siesta: Enl     =         5.114295
siesta: Eso     =         0.000000
siesta: Edftu   =         0.000000
siesta: DEna    =        -4.692733
siesta: DUscf   =         0.660212
siesta: DUext   =         0.000000
siesta: Exc     =       -83.816396
siesta: eta*DQ  =         0.000000
siesta: Emadel  =         0.000000
siesta: Emeta   =         0.000000
siesta: Emolmec =         0.000000
siesta: Ekinion =         0.000000
siesta: Eharris =      -299.845962
siesta: Etot    =      -299.845956
siesta: FreeEng =      -299.882404

siesta: Final energy (eV):
siesta:  Band Struct. =     -91.250602
siesta:       Kinetic =     194.544012
siesta:       Hartree =     341.697438
siesta:       Edftu   =       0.000000
siesta:       Eso     =       0.000000
siesta:    Ext. field =       0.000000
siesta:   Exch.-corr. =     -83.816396
siesta:  Ion-electron =    -859.670566
siesta:       Ion-ion =     107.399555
siesta:       Ekinion =       0.000000
siesta:         Total =    -299.845956
siesta:         Fermi =      -7.948955

siesta: Atomic forces (eV/Ang):
siesta:      1   -2.607544   -0.000000    0.000000
siesta:      2    2.605755   -0.000000   -0.000000
siesta: ----------------------------------------
siesta:    Tot   -0.001789   -0.000000   -0.000000

siesta: Stress tensor (static) (eV/Ang**3):
siesta:    -0.000665   -0.000000   -0.000000
siesta:     0.000000    0.000000    0.000000
siesta:     0.000000   -0.000000    0.000000

siesta: Cell volume =       4913.000000 Ang**3

siesta: Pressure (static):
siesta:                Solid            Molecule  Units
siesta:           0.00000241         -0.00000000  Ry/Bohr**3
siesta:           0.00022149         -0.00000022  eV/Ang**3
siesta:           0.35487695         -0.00035507  kBar
(Free)E+ p_basis*V_orbitals  =        -298.767428
(Free)Eharris+ p_basis*V_orbitals  =        -298.767434

siesta: Electric dipole (a.u.)  =    0.000013    0.000000   -0.000000
siesta: Electric dipole (Debye) =    0.000033    0.000000   -0.000000

cite: Please see "C.bib" for an exhaustive BiBTeX file.
cite: Please clearly indicate Siesta version in published work: v4.1.5-1-g384057250
cite: This calculation has made use of the following articles
cite: which are encouraged to be cited in a published work.
        Primary SIESTA paper
          DOI: www.doi.org/10.1088/0953-8984/14/11/302
 

timer: Elapsed wall time (sec) =     164.258
timer: CPU execution times (sec):

Routine            Calls   Time/call    Tot.time        %
siesta                 1     163.658     163.658   100.00
Setup                  1       0.273       0.273     0.17
bands                  1       0.000       0.000     0.00
KSV_init               1       0.000       0.000     0.00
IterGeom               8      20.423     163.382    99.83
state_init             8       0.027       0.220     0.13
hsparse                8       0.000       0.001     0.00
overlap                8       0.026       0.211     0.13
Setup_H0               8       1.040       8.319     5.08
naefs                 16       0.000       0.001     0.00
MolMec                16       0.000       0.000     0.00
kinefsm               16       0.012       0.191     0.12
nlefsm                16       0.043       0.690     0.42
DHSCF_Init             8       0.932       7.455     4.56
DHSCF1                 8       0.057       0.459     0.28
INITMESH               8       0.000       0.000     0.00
DHSCF2                 8       0.874       6.996     4.27
REMESH                 8       0.019       0.152     0.09
REORD                436       0.010       4.301     2.63
PHION                  8       0.345       2.763     1.69
COMM_BSC             768       0.007       5.284     3.23
POISON               194       0.420      81.402    49.74
fft                  388       0.153      59.419    36.31
IterSCF              170       0.851     144.628    88.37
setup_H              178       0.811     144.426    88.25
DHSCF                186       0.823     153.158    93.58
DHSCF3               186       0.803     149.360    91.26
rhoofd               186       0.048       8.992     5.49
XC                   186       0.106      19.714    12.05
GXC-CellXC           186       0.063      11.763     7.19
cellXC               186       0.063      11.761     7.19
vmat                 186       0.041       7.687     4.70
compute_dm           170       0.000       0.083     0.05
diagon               170       0.000       0.080     0.05
r-eigvec             170       0.000       0.067     0.04
r-buildHS            170       0.000       0.002     0.00
rdiag                170       0.000       0.064     0.04
rdiag1               170       0.000       0.004     0.00
rdiag2               170       0.000       0.005     0.00
rdiag3               170       0.000       0.046     0.03
rdiag4               170       0.000       0.006     0.00
r-buildD             170       0.000       0.007     0.00
MIXER                162       0.000       0.010     0.01
PostSCF                8       1.275      10.198     6.23
DHSCF4                 8       0.475       3.796     2.32
dfscf                  8       0.361       2.888     1.76
overfsm                8       0.001       0.004     0.00
state_analysis         8       0.001       0.006     0.00
siesta_move            8       0.000       0.004     0.00
Analysis               1       0.002       0.002     0.00
siesta_analysis        1       0.002       0.002     0.00
optical                1       0.000       0.000     0.00
  
>> End of run:   2-OCT-2022  20:25:58
Job completed
